<?xml version="1.0" encoding="UTF-8"?>

<!-- generated on 06/02/21 19:23:00 by Eclipse SUMO GUI Version 1.8.0
<configuration xmlns:xsi="http://www.w3.org/2001/XMLSchema-instance" xsi:noNamespaceSchemaLocation="http://sumo.dlr.de/xsd/sumoConfiguration.xsd">

    <input>
        <net-file value="net_map.net.xml"/>
        <route-files value="roundabout.rou.xml"/>
    </input>

    <output>
        <tripinfo-output value="tripinfo.xml"/>
    </output>

    <time>
        <begin value="0"/>
        <end value="3600"/>
    </time>

    <processing>
        <time-to-teleport value="-1"/>
    </processing>

    <report>
        <xml-validation value="never"/>
        <xml-validation.routes value="never"/>
        <duration-log.disable value="true"/>
        <no-step-log value="true"/>
    </report>

    <traci_server>
        <remote-port value="64061"/>
    </traci_server>

    <gui_only>
        <gui-settings-file value="gui-settings.cfg"/>
        <start value="true"/>
    </gui_only>

</configuration>
-->

<tripinfos xmlns:xsi="http://www.w3.org/2001/XMLSchema-instance" xsi:noNamespaceSchemaLocation="http://sumo.dlr.de/xsd/tripinfo_file.xsd">
    <tripinfo id="2" depart="4.00" departLane="gneE0_0" departPos="5.10" departSpeed="0.00" departDelay="0.00" arrival="62.00" arrivalLane="gneE0_0" arrivalPos="671.08" arrivalSpeed="14.86" duration="58.00" routeLength="665.98" waitingTime="0.00" waitingCount="0" stopTime="0.00" timeLoss="12.82" rerouteNo="0" devices="tripinfo_2" vType="type1" speedFactor="1.01" vaporized=""/>
    <tripinfo id="0" depart="0.00" departLane="gneE1_0" departPos="5.10" departSpeed="0.00" departDelay="0.00" arrival="67.00" arrivalLane="gneE2_0" arrivalPos="491.30" arrivalSpeed="14.62" duration="67.00" routeLength="701.88" waitingTime="0.00" waitingCount="0" stopTime="0.00" timeLoss="19.23" rerouteNo="0" devices="tripinfo_0" vType="type1" speedFactor="1.06" vaporized=""/>
    <tripinfo id="5" depart="9.00" departLane="gneE0_0" departPos="5.10" departSpeed="0.00" departDelay="5.00" arrival="67.00" arrivalLane="gneE0_0" arrivalPos="671.08" arrivalSpeed="14.73" duration="58.00" routeLength="665.98" waitingTime="0.00" waitingCount="0" stopTime="0.00" timeLoss="12.92" rerouteNo="0" devices="tripinfo_5" vType="type1" speedFactor="1.08" vaporized=""/>
    <tripinfo id="6" depart="14.00" departLane="gneE0_0" departPos="5.10" departSpeed="0.00" departDelay="10.00" arrival="71.00" arrivalLane="gneE0_0" arrivalPos="671.08" arrivalSpeed="14.64" duration="57.00" routeLength="665.98" waitingTime="0.00" waitingCount="0" stopTime="0.00" timeLoss="11.95" rerouteNo="0" devices="tripinfo_6" vType="type1" speedFactor="1.03" vaporized=""/>
    <tripinfo id="3" depart="19.00" departLane="gneE0_0" departPos="5.10" departSpeed="0.00" departDelay="13.00" arrival="71.00" arrivalLane="gneE0_1" arrivalPos="671.08" arrivalSpeed="15.80" duration="52.00" routeLength="665.98" waitingTime="0.00" waitingCount="0" stopTime="0.00" timeLoss="11.60" rerouteNo="0" devices="tripinfo_3" vType="type2" speedFactor="0.83" vaporized=""/>
    <tripinfo id="1" depart="5.00" departLane="gneE1_0" departPos="5.10" departSpeed="0.00" departDelay="3.00" arrival="82.00" arrivalLane="gneE2_0" arrivalPos="491.30" arrivalSpeed="12.65" duration="77.00" routeLength="701.88" waitingTime="0.00" waitingCount="0" stopTime="0.00" timeLoss="22.86" rerouteNo="0" devices="tripinfo_1" vType="type2" speedFactor="0.94" vaporized=""/>
</tripinfos>
