<?xml version="1.0" encoding="UTF-8"?>

<!-- generated on 06/21/21 18:31:43 by Eclipse SUMO GUI Version 1.8.0
<configuration xmlns:xsi="http://www.w3.org/2001/XMLSchema-instance" xsi:noNamespaceSchemaLocation="http://sumo.dlr.de/xsd/sumoConfiguration.xsd">

    <input>
        <net-file value="SUMO/new.net.xml"/>
        <route-files value="SUMO/routes_clear.xml"/>
    </input>

    <output>
        <tripinfo-output value="SUMO/tripinfo.xml"/>
    </output>

    <time>
        <begin value="0"/>
        <end value="3600"/>
    </time>

    <processing>
        <time-to-teleport value="-1"/>
    </processing>

    <report>
        <xml-validation value="never"/>
        <xml-validation.routes value="never"/>
        <duration-log.disable value="true"/>
        <no-step-log value="true"/>
    </report>

    <gui_only>
        <gui-settings-file value="SUMO/gui-settings.cfg"/>
        <start value="true"/>
    </gui_only>

</configuration>
-->

<tripinfos xmlns:xsi="http://www.w3.org/2001/XMLSchema-instance" xsi:noNamespaceSchemaLocation="http://sumo.dlr.de/xsd/tripinfo_file.xsd">
    <tripinfo id="random10" depart="57.00" departLane="gneE0_0" departPos="5.10" departSpeed="0.00" departDelay="2.00" arrival="118.00" arrivalLane="gneE0_0" arrivalPos="671.08" arrivalSpeed="12.81" duration="61.00" routeLength="665.98" waitingTime="0.00" waitingCount="0" stopTime="0.00" timeLoss="10.09" rerouteNo="0" devices="tripinfo_random10" vType="type2" speedFactor="1.09" vaporized=""/>
    <tripinfo id="random7" depart="55.00" departLane="gneE0_0" departPos="5.10" departSpeed="0.00" departDelay="5.00" arrival="129.00" arrivalLane="gneE0_0" arrivalPos="671.08" arrivalSpeed="10.07" duration="74.00" routeLength="665.98" waitingTime="0.00" waitingCount="0" stopTime="0.00" timeLoss="10.45" rerouteNo="0" devices="tripinfo_random7" vType="type2" speedFactor="0.89" vaporized=""/>
    <tripinfo id="random15" depart="59.00" departLane="gneE0_0" departPos="5.10" departSpeed="0.00" departDelay="4.00" arrival="129.00" arrivalLane="gneE0_1" arrivalPos="671.08" arrivalSpeed="11.10" duration="70.00" routeLength="665.98" waitingTime="0.00" waitingCount="0" stopTime="0.00" timeLoss="9.35" rerouteNo="0" devices="tripinfo_random15" vType="type1" speedFactor="0.93" vaporized=""/>
    <tripinfo id="random18" depart="64.00" departLane="gneE0_0" departPos="5.10" departSpeed="0.00" departDelay="9.00" arrival="134.00" arrivalLane="gneE0_0" arrivalPos="671.08" arrivalSpeed="11.01" duration="70.00" routeLength="665.98" waitingTime="0.00" waitingCount="0" stopTime="0.00" timeLoss="10.06" rerouteNo="0" devices="tripinfo_random18" vType="type1" speedFactor="0.94" vaporized=""/>
    <tripinfo id="random19" depart="69.00" departLane="gneE0_0" departPos="5.10" departSpeed="0.00" departDelay="14.00" arrival="136.00" arrivalLane="gneE0_1" arrivalPos="671.08" arrivalSpeed="11.86" duration="67.00" routeLength="665.98" waitingTime="0.00" waitingCount="0" stopTime="0.00" timeLoss="10.57" rerouteNo="0" devices="tripinfo_random19" vType="type1" speedFactor="1.16" vaporized=""/>
    <tripinfo id="1" depart="74.00" departLane="gneE0_0" departPos="5.10" departSpeed="0.00" departDelay="18.16" arrival="141.00" arrivalLane="gneE0_1" arrivalPos="671.08" arrivalSpeed="11.89" duration="67.00" routeLength="665.98" waitingTime="0.00" waitingCount="0" stopTime="0.00" timeLoss="10.83" rerouteNo="0" devices="tripinfo_1" vType="type1" speedFactor="1.07" vaporized=""/>
    <tripinfo id="random2" depart="50.00" departLane="gneE0_0" departPos="8.10" departSpeed="0.00" departDelay="0.00" arrival="142.00" arrivalLane="gneE0_0" arrivalPos="671.08" arrivalSpeed="7.61" duration="92.00" routeLength="662.98" waitingTime="0.00" waitingCount="0" stopTime="0.00" timeLoss="8.72" rerouteNo="0" devices="tripinfo_random2" vType="type3" speedFactor="1.01" vaporized=""/>
    <tripinfo id="11" depart="79.00" departLane="gneE0_0" departPos="5.10" departSpeed="0.00" departDelay="22.02" arrival="144.00" arrivalLane="gneE0_0" arrivalPos="671.08" arrivalSpeed="11.72" duration="65.00" routeLength="665.98" waitingTime="0.00" waitingCount="0" stopTime="0.00" timeLoss="9.39" rerouteNo="0" devices="tripinfo_11" vType="type1" speedFactor="1.01" vaporized=""/>
    <tripinfo id="random0" depart="50.00" departLane="gneE1_0" departPos="8.10" departSpeed="0.00" departDelay="0.00" arrival="148.00" arrivalLane="gneE2_0" arrivalPos="491.30" arrivalSpeed="7.68" duration="98.00" routeLength="698.88" waitingTime="0.00" waitingCount="0" stopTime="0.00" timeLoss="10.48" rerouteNo="0" devices="tripinfo_random0" vType="type3" speedFactor="1.06" vaporized=""/>
    <tripinfo id="random1" depart="55.00" departLane="gneE1_0" departPos="5.10" departSpeed="0.00" departDelay="5.00" arrival="151.00" arrivalLane="gneE2_0" arrivalPos="491.30" arrivalSpeed="9.40" duration="96.00" routeLength="701.88" waitingTime="0.00" waitingCount="0" stopTime="0.00" timeLoss="36.75" rerouteNo="0" devices="tripinfo_random1" vType="type1" speedFactor="0.94" vaporized=""/>
    <tripinfo id="random20" depart="89.00" departLane="gneE0_0" departPos="5.10" departSpeed="0.00" departDelay="29.00" arrival="151.00" arrivalLane="gneE0_0" arrivalPos="671.08" arrivalSpeed="10.94" duration="62.00" routeLength="665.98" waitingTime="0.00" waitingCount="0" stopTime="0.00" timeLoss="7.37" rerouteNo="0" devices="tripinfo_random20" vType="type2" speedFactor="1.02" vaporized=""/>
    <tripinfo id="random5" depart="60.00" departLane="gneE1_0" departPos="5.10" departSpeed="0.00" departDelay="10.00" arrival="152.00" arrivalLane="gneE2_0" arrivalPos="491.30" arrivalSpeed="9.52" duration="92.00" routeLength="701.88" waitingTime="1.00" waitingCount="1" stopTime="0.00" timeLoss="30.41" rerouteNo="0" devices="tripinfo_random5" vType="type1" speedFactor="0.83" vaporized=""/>
    <tripinfo id="random8" depart="66.00" departLane="gneE1_0" departPos="5.10" departSpeed="0.00" departDelay="16.00" arrival="154.00" arrivalLane="gneE2_0" arrivalPos="491.30" arrivalSpeed="10.65" duration="88.00" routeLength="701.88" waitingTime="0.00" waitingCount="0" stopTime="0.00" timeLoss="33.48" rerouteNo="0" devices="tripinfo_random8" vType="type2" speedFactor="0.94" vaporized=""/>
    <tripinfo id="random3" depart="50.00" departLane="gneE3_0" departPos="8.10" departSpeed="0.00" departDelay="0.00" arrival="157.00" arrivalLane="gneE4_0" arrivalPos="431.40" arrivalSpeed="7.65" duration="107.00" routeLength="772.51" waitingTime="0.00" waitingCount="0" stopTime="0.00" timeLoss="9.80" rerouteNo="0" devices="tripinfo_random3" vType="type3" speedFactor="1.08" vaporized=""/>
    <tripinfo id="random4" depart="55.00" departLane="gneE3_0" departPos="5.10" departSpeed="0.00" departDelay="5.00" arrival="159.00" arrivalLane="gneE4_0" arrivalPos="431.40" arrivalSpeed="9.07" duration="104.00" routeLength="775.51" waitingTime="0.00" waitingCount="0" stopTime="0.00" timeLoss="39.31" rerouteNo="0" devices="tripinfo_random4" vType="type1" speedFactor="1.03" vaporized=""/>
    <tripinfo id="random12" depart="70.00" departLane="gneE1_0" departPos="8.10" departSpeed="0.00" departDelay="15.00" arrival="168.00" arrivalLane="gneE2_0" arrivalPos="491.30" arrivalSpeed="7.94" duration="98.00" routeLength="698.88" waitingTime="0.00" waitingCount="0" stopTime="0.00" timeLoss="10.57" rerouteNo="0" devices="tripinfo_random12" vType="type3" speedFactor="1.05" vaporized=""/>
    <tripinfo id="random6" depart="61.00" departLane="gneE3_0" departPos="8.10" departSpeed="0.00" departDelay="11.00" arrival="169.00" arrivalLane="gneE4_0" arrivalPos="431.40" arrivalSpeed="7.82" duration="108.00" routeLength="772.51" waitingTime="0.00" waitingCount="0" stopTime="0.00" timeLoss="11.08" rerouteNo="0" devices="tripinfo_random6" vType="type3" speedFactor="1.05" vaporized=""/>
    <tripinfo id="random14" depart="75.00" departLane="gneE1_0" departPos="5.10" departSpeed="0.00" departDelay="20.00" arrival="171.00" arrivalLane="gneE2_0" arrivalPos="491.30" arrivalSpeed="9.45" duration="96.00" routeLength="701.88" waitingTime="0.00" waitingCount="0" stopTime="0.00" timeLoss="36.24" rerouteNo="0" devices="tripinfo_random14" vType="type1" speedFactor="0.99" vaporized=""/>
    <tripinfo id="random24" depart="95.00" departLane="gneE0_0" departPos="5.10" departSpeed="0.00" departDelay="35.00" arrival="173.00" arrivalLane="gneE0_1" arrivalPos="671.08" arrivalSpeed="9.35" duration="78.00" routeLength="665.98" waitingTime="0.00" waitingCount="0" stopTime="0.00" timeLoss="9.88" rerouteNo="0" devices="tripinfo_random24" vType="type2" speedFactor="0.83" vaporized=""/>
    <tripinfo id="8" depart="84.00" departLane="gneE0_0" departPos="5.10" departSpeed="0.00" departDelay="26.01" arrival="173.00" arrivalLane="gneE0_0" arrivalPos="671.08" arrivalSpeed="8.19" duration="89.00" routeLength="665.98" waitingTime="0.00" waitingCount="0" stopTime="0.00" timeLoss="8.28" rerouteNo="0" devices="tripinfo_8" vType="type1" speedFactor="0.69" vaporized=""/>
    <tripinfo id="random9" depart="67.00" departLane="gneE3_0" departPos="8.10" departSpeed="0.00" departDelay="17.00" arrival="175.00" arrivalLane="gneE4_0" arrivalPos="431.40" arrivalSpeed="7.91" duration="108.00" routeLength="772.51" waitingTime="0.00" waitingCount="0" stopTime="0.00" timeLoss="11.28" rerouteNo="0" devices="tripinfo_random9" vType="type3" speedFactor="0.86" vaporized=""/>
    <tripinfo id="random26" depart="96.00" departLane="gneE0_0" departPos="5.10" departSpeed="0.00" departDelay="36.00" arrival="175.00" arrivalLane="gneE0_1" arrivalPos="671.08" arrivalSpeed="8.54" duration="79.00" routeLength="665.98" waitingTime="0.00" waitingCount="0" stopTime="0.00" timeLoss="17.76" rerouteNo="0" devices="tripinfo_random26" vType="type2" speedFactor="0.92" vaporized=""/>
    <tripinfo id="random27" depart="98.00" departLane="gneE0_0" departPos="5.10" departSpeed="0.00" departDelay="38.00" arrival="175.00" arrivalLane="gneE0_0" arrivalPos="671.08" arrivalSpeed="10.55" duration="77.00" routeLength="665.98" waitingTime="0.00" waitingCount="0" stopTime="0.00" timeLoss="18.27" rerouteNo="0" devices="tripinfo_random27" vType="type2" speedFactor="0.95" vaporized=""/>
    <tripinfo id="2" depart="105.00" departLane="gneE0_0" departPos="5.10" departSpeed="0.00" departDelay="45.08" arrival="176.00" arrivalLane="gneE0_1" arrivalPos="671.08" arrivalSpeed="9.25" duration="71.00" routeLength="665.98" waitingTime="0.00" waitingCount="0" stopTime="0.00" timeLoss="10.46" rerouteNo="0" devices="tripinfo_2" vType="type1" speedFactor="0.92" vaporized=""/>
    <tripinfo id="random11" depart="72.00" departLane="gneE3_0" departPos="5.10" departSpeed="0.00" departDelay="17.00" arrival="178.00" arrivalLane="gneE4_0" arrivalPos="431.40" arrivalSpeed="9.43" duration="106.00" routeLength="775.51" waitingTime="0.00" waitingCount="0" stopTime="0.00" timeLoss="40.07" rerouteNo="0" devices="tripinfo_random11" vType="type1" speedFactor="1.03" vaporized=""/>
    <tripinfo id="random17" depart="81.00" departLane="gneE1_0" departPos="8.10" departSpeed="0.00" departDelay="26.00" arrival="179.00" arrivalLane="gneE2_0" arrivalPos="491.30" arrivalSpeed="7.64" duration="98.00" routeLength="698.88" waitingTime="0.00" waitingCount="0" stopTime="0.00" timeLoss="10.60" rerouteNo="0" devices="tripinfo_random17" vType="type3" speedFactor="0.94" vaporized=""/>
    <tripinfo id="3" depart="110.00" departLane="gneE0_0" departPos="5.10" departSpeed="0.00" departDelay="50.72" arrival="179.00" arrivalLane="gneE0_0" arrivalPos="671.08" arrivalSpeed="10.90" duration="69.00" routeLength="665.98" waitingTime="0.00" waitingCount="0" stopTime="0.00" timeLoss="9.11" rerouteNo="0" devices="tripinfo_3" vType="type1" speedFactor="0.93" vaporized=""/>
    <tripinfo id="random22" depart="90.00" departLane="gneE0_0" departPos="8.10" departSpeed="0.00" departDelay="30.00" arrival="181.00" arrivalLane="gneE0_0" arrivalPos="671.08" arrivalSpeed="7.83" duration="91.00" routeLength="662.98" waitingTime="0.00" waitingCount="0" stopTime="0.00" timeLoss="7.93" rerouteNo="0" devices="tripinfo_random22" vType="type3" speedFactor="0.98" vaporized=""/>
    <tripinfo id="10" depart="115.00" departLane="gneE0_0" departPos="5.10" departSpeed="0.00" departDelay="55.34" arrival="182.00" arrivalLane="gneE0_1" arrivalPos="671.08" arrivalSpeed="11.94" duration="67.00" routeLength="665.98" waitingTime="0.00" waitingCount="0" stopTime="0.00" timeLoss="10.58" rerouteNo="0" devices="tripinfo_10" vType="type1" speedFactor="1.12" vaporized=""/>
    <tripinfo id="20" depart="87.00" departLane="gneE1_0" departPos="5.10" departSpeed="0.00" departDelay="28.42" arrival="182.00" arrivalLane="gneE2_0" arrivalPos="491.30" arrivalSpeed="9.71" duration="95.00" routeLength="701.88" waitingTime="0.00" waitingCount="0" stopTime="0.00" timeLoss="35.18" rerouteNo="0" devices="tripinfo_20" vType="type1" speedFactor="1.05" vaporized=""/>
    <tripinfo id="random30" depart="130.00" departLane="gneE0_0" departPos="5.10" departSpeed="0.00" departDelay="65.00" arrival="184.00" arrivalLane="gneE0_1" arrivalPos="671.08" arrivalSpeed="13.37" duration="54.00" routeLength="665.98" waitingTime="1.00" waitingCount="1" stopTime="0.00" timeLoss="6.12" rerouteNo="0" devices="tripinfo_random30" vType="type2" speedFactor="1.18" vaporized=""/>
    <tripinfo id="random13" depart="78.00" departLane="gneE3_0" departPos="8.10" departSpeed="0.00" departDelay="23.00" arrival="186.00" arrivalLane="gneE4_0" arrivalPos="431.40" arrivalSpeed="7.70" duration="108.00" routeLength="772.51" waitingTime="0.00" waitingCount="0" stopTime="0.00" timeLoss="10.85" rerouteNo="0" devices="tripinfo_random13" vType="type3" speedFactor="1.12" vaporized=""/>
    <tripinfo id="13" depart="120.00" departLane="gneE0_0" departPos="5.10" departSpeed="0.00" departDelay="59.35" arrival="187.00" arrivalLane="gneE0_1" arrivalPos="671.08" arrivalSpeed="11.61" duration="67.00" routeLength="665.98" waitingTime="0.00" waitingCount="0" stopTime="0.00" timeLoss="11.16" rerouteNo="0" devices="tripinfo_13" vType="type1" speedFactor="1.09" vaporized=""/>
    <tripinfo id="random16" depart="84.00" departLane="gneE3_0" departPos="5.10" departSpeed="0.00" departDelay="29.00" arrival="188.00" arrivalLane="gneE4_0" arrivalPos="431.40" arrivalSpeed="9.22" duration="104.00" routeLength="775.51" waitingTime="0.00" waitingCount="0" stopTime="0.00" timeLoss="39.34" rerouteNo="0" devices="tripinfo_random16" vType="type1" speedFactor="0.88" vaporized=""/>
    <tripinfo id="random21" depart="93.00" departLane="gneE1_0" departPos="8.10" departSpeed="0.00" departDelay="33.00" arrival="190.00" arrivalLane="gneE2_0" arrivalPos="491.30" arrivalSpeed="7.77" duration="97.00" routeLength="698.88" waitingTime="0.00" waitingCount="0" stopTime="0.00" timeLoss="9.33" rerouteNo="0" devices="tripinfo_random21" vType="type3" speedFactor="1.01" vaporized=""/>
    <tripinfo id="random25" depart="89.00" departLane="gneE3_0" departPos="5.10" departSpeed="0.00" departDelay="29.00" arrival="190.00" arrivalLane="gneE4_0" arrivalPos="431.40" arrivalSpeed="8.99" duration="101.00" routeLength="775.51" waitingTime="0.00" waitingCount="0" stopTime="0.00" timeLoss="36.33" rerouteNo="0" devices="tripinfo_random25" vType="type1" speedFactor="0.87" vaporized=""/>
    <tripinfo id="random23" depart="98.00" departLane="gneE1_0" departPos="5.10" departSpeed="0.00" departDelay="38.00" arrival="192.00" arrivalLane="gneE2_0" arrivalPos="491.30" arrivalSpeed="9.22" duration="94.00" routeLength="701.88" waitingTime="0.00" waitingCount="0" stopTime="0.00" timeLoss="35.37" rerouteNo="0" devices="tripinfo_random23" vType="type1" speedFactor="0.89" vaporized=""/>
    <tripinfo id="random29" depart="100.00" departLane="gneE0_0" departPos="8.10" departSpeed="0.00" departDelay="40.00" arrival="192.00" arrivalLane="gneE0_0" arrivalPos="671.08" arrivalSpeed="7.87" duration="92.00" routeLength="662.98" waitingTime="0.00" waitingCount="0" stopTime="0.00" timeLoss="8.18" rerouteNo="0" devices="tripinfo_random29" vType="type3" speedFactor="0.93" vaporized=""/>
    <tripinfo id="random35" depart="94.00" departLane="gneE3_0" departPos="5.10" departSpeed="0.00" departDelay="29.00" arrival="192.00" arrivalLane="gneE4_0" arrivalPos="431.40" arrivalSpeed="10.00" duration="98.00" routeLength="775.51" waitingTime="0.00" waitingCount="0" stopTime="0.00" timeLoss="33.17" rerouteNo="0" devices="tripinfo_random35" vType="type1" speedFactor="1.02" vaporized=""/>
    <tripinfo id="12" depart="125.00" departLane="gneE0_0" departPos="5.10" departSpeed="0.00" departDelay="61.77" arrival="193.00" arrivalLane="gneE0_1" arrivalPos="671.08" arrivalSpeed="11.60" duration="68.00" routeLength="665.98" waitingTime="0.00" waitingCount="0" stopTime="0.00" timeLoss="11.56" rerouteNo="0" devices="tripinfo_12" vType="type1" speedFactor="1.01" vaporized=""/>
    <tripinfo id="random36" depart="99.00" departLane="gneE3_0" departPos="5.10" departSpeed="0.00" departDelay="34.00" arrival="194.00" arrivalLane="gneE4_0" arrivalPos="431.40" arrivalSpeed="10.37" duration="95.00" routeLength="775.51" waitingTime="0.00" waitingCount="0" stopTime="0.00" timeLoss="30.02" rerouteNo="0" devices="tripinfo_random36" vType="type1" speedFactor="0.97" vaporized=""/>
    <tripinfo id="random28" depart="104.00" departLane="gneE1_0" departPos="8.10" departSpeed="0.00" departDelay="44.00" arrival="202.00" arrivalLane="gneE2_0" arrivalPos="491.30" arrivalSpeed="7.71" duration="98.00" routeLength="698.88" waitingTime="0.00" waitingCount="0" stopTime="0.00" timeLoss="9.62" rerouteNo="0" devices="tripinfo_random28" vType="type3" speedFactor="1.13" vaporized=""/>
    <tripinfo id="random34" depart="109.00" departLane="gneE1_0" departPos="5.10" departSpeed="0.00" departDelay="44.00" arrival="204.00" arrivalLane="gneE2_0" arrivalPos="491.30" arrivalSpeed="12.51" duration="95.00" routeLength="701.88" waitingTime="0.00" waitingCount="0" stopTime="0.00" timeLoss="43.00" rerouteNo="0" devices="tripinfo_random34" vType="type2" speedFactor="0.99" vaporized=""/>
    <tripinfo id="random39" depart="113.00" departLane="gneE1_0" departPos="5.10" departSpeed="0.00" departDelay="48.00" arrival="206.00" arrivalLane="gneE2_0" arrivalPos="491.30" arrivalSpeed="9.57" duration="93.00" routeLength="701.88" waitingTime="0.00" waitingCount="0" stopTime="0.00" timeLoss="33.66" rerouteNo="0" devices="tripinfo_random39" vType="type1" speedFactor="0.90" vaporized=""/>
    <tripinfo id="random37" depart="105.00" departLane="gneE3_0" departPos="8.10" departSpeed="0.00" departDelay="40.00" arrival="212.00" arrivalLane="gneE4_0" arrivalPos="431.40" arrivalSpeed="7.98" duration="107.00" routeLength="772.51" waitingTime="0.00" waitingCount="0" stopTime="0.00" timeLoss="10.34" rerouteNo="0" devices="tripinfo_random37" vType="type3" speedFactor="1.18" vaporized=""/>
    <tripinfo id="random38" depart="149.00" departLane="gneE0_0" departPos="5.10" departSpeed="0.00" departDelay="84.00" arrival="214.00" arrivalLane="gneE0_0" arrivalPos="671.08" arrivalSpeed="11.67" duration="65.00" routeLength="665.98" waitingTime="0.00" waitingCount="0" stopTime="0.00" timeLoss="9.48" rerouteNo="0" devices="tripinfo_random38" vType="type1" speedFactor="1.10" vaporized=""/>
    <tripinfo id="random46" depart="110.00" departLane="gneE3_0" departPos="5.10" departSpeed="0.00" departDelay="40.00" arrival="215.00" arrivalLane="gneE4_0" arrivalPos="431.40" arrivalSpeed="9.07" duration="105.00" routeLength="775.51" waitingTime="0.00" waitingCount="0" stopTime="0.00" timeLoss="39.75" rerouteNo="0" devices="tripinfo_random46" vType="type1" speedFactor="1.00" vaporized=""/>
    <tripinfo id="random44" depart="119.00" departLane="gneE1_0" departPos="8.10" departSpeed="0.00" departDelay="49.00" arrival="217.00" arrivalLane="gneE2_0" arrivalPos="491.30" arrivalSpeed="7.83" duration="98.00" routeLength="698.88" waitingTime="0.00" waitingCount="0" stopTime="0.00" timeLoss="9.51" rerouteNo="0" devices="tripinfo_random44" vType="type3" speedFactor="1.04" vaporized=""/>
    <tripinfo id="random31" depart="132.00" departLane="gneE0_0" departPos="8.10" departSpeed="0.00" departDelay="67.00" arrival="223.00" arrivalLane="gneE0_0" arrivalPos="671.08" arrivalSpeed="7.93" duration="91.00" routeLength="662.98" waitingTime="0.00" waitingCount="0" stopTime="0.00" timeLoss="7.58" rerouteNo="0" devices="tripinfo_random31" vType="type3" speedFactor="1.15" vaporized=""/>
    <tripinfo id="random51" depart="116.00" departLane="gneE3_0" departPos="8.10" departSpeed="0.00" departDelay="41.00" arrival="223.00" arrivalLane="gneE4_0" arrivalPos="431.40" arrivalSpeed="7.93" duration="107.00" routeLength="772.51" waitingTime="0.00" waitingCount="0" stopTime="0.00" timeLoss="10.17" rerouteNo="0" devices="tripinfo_random51" vType="type3" speedFactor="1.17" vaporized=""/>
    <tripinfo id="random47" depart="125.00" departLane="gneE1_0" departPos="8.10" departSpeed="0.00" departDelay="55.00" arrival="224.00" arrivalLane="gneE2_0" arrivalPos="491.30" arrivalSpeed="7.77" duration="99.00" routeLength="698.88" waitingTime="0.00" waitingCount="0" stopTime="0.00" timeLoss="10.87" rerouteNo="0" devices="tripinfo_random47" vType="type3" speedFactor="0.90" vaporized=""/>
    <tripinfo id="17" depart="154.00" departLane="gneE0_0" departPos="5.10" departSpeed="0.00" departDelay="89.42" arrival="224.00" arrivalLane="gneE0_1" arrivalPos="671.08" arrivalSpeed="10.60" duration="70.00" routeLength="665.98" waitingTime="0.00" waitingCount="0" stopTime="0.00" timeLoss="9.04" rerouteNo="0" devices="tripinfo_17" vType="type1" speedFactor="0.91" vaporized=""/>
    <tripinfo id="random53" depart="121.00" departLane="gneE3_0" departPos="5.10" departSpeed="0.00" departDelay="46.00" arrival="225.00" arrivalLane="gneE4_0" arrivalPos="431.40" arrivalSpeed="8.99" duration="104.00" routeLength="775.51" waitingTime="0.00" waitingCount="0" stopTime="0.00" timeLoss="39.33" rerouteNo="0" devices="tripinfo_random53" vType="type1" speedFactor="1.10" vaporized=""/>
    <tripinfo id="random48" depart="130.00" departLane="gneE1_0" departPos="5.10" departSpeed="0.00" departDelay="60.00" arrival="226.00" arrivalLane="gneE2_0" arrivalPos="491.30" arrivalSpeed="11.93" duration="96.00" routeLength="701.88" waitingTime="0.00" waitingCount="0" stopTime="0.00" timeLoss="36.99" rerouteNo="0" devices="tripinfo_random48" vType="type2" speedFactor="0.88" vaporized=""/>
    <tripinfo id="random56" depart="126.00" departLane="gneE3_0" departPos="5.10" departSpeed="0.00" departDelay="51.00" arrival="227.00" arrivalLane="gneE4_0" arrivalPos="431.40" arrivalSpeed="12.16" duration="101.00" routeLength="775.51" waitingTime="0.00" waitingCount="0" stopTime="0.00" timeLoss="42.63" rerouteNo="0" devices="tripinfo_random56" vType="type2" speedFactor="0.90" vaporized=""/>
    <tripinfo id="random52" depart="134.00" departLane="gneE1_0" departPos="5.10" departSpeed="0.00" departDelay="59.00" arrival="228.00" arrivalLane="gneE2_0" arrivalPos="491.30" arrivalSpeed="12.80" duration="94.00" routeLength="701.88" waitingTime="0.00" waitingCount="0" stopTime="0.00" timeLoss="43.51" rerouteNo="0" devices="tripinfo_random52" vType="type2" speedFactor="1.02" vaporized=""/>
    <tripinfo id="random32" depart="138.00" departLane="gneE0_0" departPos="8.10" departSpeed="0.00" departDelay="73.00" arrival="229.00" arrivalLane="gneE0_0" arrivalPos="671.08" arrivalSpeed="7.71" duration="91.00" routeLength="662.98" waitingTime="0.00" waitingCount="0" stopTime="0.00" timeLoss="7.68" rerouteNo="0" devices="tripinfo_random32" vType="type3" speedFactor="1.01" vaporized=""/>
    <tripinfo id="random58" depart="130.00" departLane="gneE3_0" departPos="5.10" departSpeed="0.00" departDelay="55.00" arrival="229.00" arrivalLane="gneE4_0" arrivalPos="431.40" arrivalSpeed="14.80" duration="99.00" routeLength="775.51" waitingTime="0.00" waitingCount="0" stopTime="0.00" timeLoss="47.79" rerouteNo="0" devices="tripinfo_random58" vType="type2" speedFactor="1.02" vaporized=""/>
    <tripinfo id="18" depart="159.00" departLane="gneE0_0" departPos="5.10" departSpeed="0.00" departDelay="94.68" arrival="229.00" arrivalLane="gneE0_1" arrivalPos="671.08" arrivalSpeed="10.85" duration="70.00" routeLength="665.98" waitingTime="0.00" waitingCount="0" stopTime="0.00" timeLoss="9.45" rerouteNo="0" devices="tripinfo_18" vType="type1" speedFactor="0.92" vaporized=""/>
    <tripinfo id="random54" depart="137.00" departLane="gneE1_0" departPos="5.10" departSpeed="0.00" departDelay="62.00" arrival="230.00" arrivalLane="gneE2_0" arrivalPos="491.30" arrivalSpeed="9.41" duration="93.00" routeLength="701.88" waitingTime="0.00" waitingCount="0" stopTime="0.00" timeLoss="34.51" rerouteNo="0" devices="tripinfo_random54" vType="type1" speedFactor="1.00" vaporized=""/>
    <tripinfo id="random59" depart="133.00" departLane="gneE3_0" departPos="5.10" departSpeed="0.00" departDelay="58.00" arrival="231.00" arrivalLane="gneE4_0" arrivalPos="431.40" arrivalSpeed="11.23" duration="98.00" routeLength="775.51" waitingTime="0.00" waitingCount="0" stopTime="0.00" timeLoss="33.03" rerouteNo="0" devices="tripinfo_random59" vType="type1" speedFactor="0.97" vaporized=""/>
    <tripinfo id="9" depart="164.00" departLane="gneE0_0" departPos="5.10" departSpeed="0.00" departDelay="96.45" arrival="231.00" arrivalLane="gneE0_1" arrivalPos="671.08" arrivalSpeed="11.93" duration="67.00" routeLength="665.98" waitingTime="0.00" waitingCount="0" stopTime="0.00" timeLoss="11.06" rerouteNo="0" devices="tripinfo_9" vType="type1" speedFactor="1.05" vaporized=""/>
    <tripinfo id="random55" depart="142.00" departLane="gneE1_0" departPos="5.10" departSpeed="0.00" departDelay="67.00" arrival="232.00" arrivalLane="gneE2_0" arrivalPos="491.30" arrivalSpeed="10.17" duration="90.00" routeLength="701.88" waitingTime="0.00" waitingCount="0" stopTime="0.00" timeLoss="31.33" rerouteNo="0" devices="tripinfo_random55" vType="type1" speedFactor="1.00" vaporized=""/>
    <tripinfo id="random63" depart="138.00" departLane="gneE3_0" departPos="5.10" departSpeed="0.00" departDelay="58.00" arrival="233.00" arrivalLane="gneE4_0" arrivalPos="431.40" arrivalSpeed="13.72" duration="95.00" routeLength="775.51" waitingTime="0.00" waitingCount="0" stopTime="0.00" timeLoss="41.93" rerouteNo="0" devices="tripinfo_random63" vType="type2" speedFactor="0.99" vaporized=""/>
    <tripinfo id="random57" depart="147.00" departLane="gneE1_0" departPos="5.10" departSpeed="0.00" departDelay="72.00" arrival="234.00" arrivalLane="gneE2_0" arrivalPos="491.30" arrivalSpeed="15.11" duration="87.00" routeLength="701.88" waitingTime="0.00" waitingCount="0" stopTime="0.00" timeLoss="42.24" rerouteNo="0" devices="tripinfo_random57" vType="type2" speedFactor="1.14" vaporized=""/>
    <tripinfo id="random33" depart="144.00" departLane="gneE0_0" departPos="8.10" departSpeed="0.00" departDelay="79.00" arrival="235.00" arrivalLane="gneE0_0" arrivalPos="671.08" arrivalSpeed="7.99" duration="91.00" routeLength="662.98" waitingTime="0.00" waitingCount="0" stopTime="0.00" timeLoss="7.61" rerouteNo="0" devices="tripinfo_random33" vType="type3" speedFactor="1.17" vaporized=""/>
    <tripinfo id="random64" depart="141.00" departLane="gneE3_0" departPos="5.10" departSpeed="0.00" departDelay="61.00" arrival="235.00" arrivalLane="gneE4_0" arrivalPos="431.40" arrivalSpeed="13.68" duration="94.00" routeLength="775.51" waitingTime="0.00" waitingCount="0" stopTime="0.00" timeLoss="37.27" rerouteNo="0" devices="tripinfo_random64" vType="type2" speedFactor="0.94" vaporized=""/>
    <tripinfo id="random60" depart="150.00" departLane="gneE1_0" departPos="5.10" departSpeed="0.00" departDelay="70.00" arrival="236.00" arrivalLane="gneE2_0" arrivalPos="491.30" arrivalSpeed="10.54" duration="86.00" routeLength="701.88" waitingTime="0.00" waitingCount="0" stopTime="0.00" timeLoss="27.51" rerouteNo="0" devices="tripinfo_random60" vType="type1" speedFactor="1.08" vaporized=""/>
    <tripinfo id="random65" depart="144.00" departLane="gneE3_0" departPos="5.10" departSpeed="0.00" departDelay="64.00" arrival="237.00" arrivalLane="gneE4_0" arrivalPos="431.40" arrivalSpeed="12.19" duration="93.00" routeLength="775.51" waitingTime="0.00" waitingCount="0" stopTime="0.00" timeLoss="33.61" rerouteNo="0" devices="tripinfo_random65" vType="type2" speedFactor="0.88" vaporized=""/>
    <tripinfo id="random62" depart="155.00" departLane="gneE1_0" departPos="5.10" departSpeed="0.00" departDelay="75.00" arrival="238.00" arrivalLane="gneE2_0" arrivalPos="491.30" arrivalSpeed="13.32" duration="83.00" routeLength="701.88" waitingTime="0.00" waitingCount="0" stopTime="0.00" timeLoss="32.52" rerouteNo="0" devices="tripinfo_random62" vType="type2" speedFactor="1.02" vaporized=""/>
    <tripinfo id="random42" depart="180.00" departLane="gneE0_0" departPos="5.10" departSpeed="0.00" departDelay="110.00" arrival="239.00" arrivalLane="gneE0_0" arrivalPos="671.08" arrivalSpeed="10.89" duration="59.00" routeLength="665.98" waitingTime="0.00" waitingCount="0" stopTime="0.00" timeLoss="7.43" rerouteNo="0" devices="tripinfo_random42" vType="type2" speedFactor="1.09" vaporized=""/>
    <tripinfo id="random66" depart="147.00" departLane="gneE3_0" departPos="5.10" departSpeed="0.00" departDelay="67.00" arrival="239.00" arrivalLane="gneE4_0" arrivalPos="431.40" arrivalSpeed="11.70" duration="92.00" routeLength="775.51" waitingTime="0.00" waitingCount="0" stopTime="0.00" timeLoss="26.34" rerouteNo="0" devices="tripinfo_random66" vType="type1" speedFactor="0.91" vaporized=""/>
    <tripinfo id="random70" depart="152.00" departLane="gneE3_0" departPos="5.10" departSpeed="0.00" departDelay="67.00" arrival="241.00" arrivalLane="gneE4_0" arrivalPos="431.40" arrivalSpeed="13.81" duration="89.00" routeLength="775.51" waitingTime="0.00" waitingCount="0" stopTime="0.00" timeLoss="37.91" rerouteNo="0" devices="tripinfo_random70" vType="type2" speedFactor="1.02" vaporized=""/>