<?xml version="1.0" encoding="UTF-8"?>

<!-- generated on 06/16/21 12:26:16 by Eclipse SUMO GUI Version 1.8.0
<configuration xmlns:xsi="http://www.w3.org/2001/XMLSchema-instance" xsi:noNamespaceSchemaLocation="http://sumo.dlr.de/xsd/sumoConfiguration.xsd">

    <input>
        <net-file value="SUMO/new.net.xml"/>
        <route-files value="SUMO/roundabout.rou.xml"/>
    </input>

    <output>
        <tripinfo-output value="SUMO/tripinfo.xml"/>
    </output>

    <time>
        <begin value="0"/>
        <end value="3600"/>
    </time>

    <processing>
        <time-to-teleport value="-1"/>
    </processing>

    <report>
        <xml-validation value="never"/>
        <xml-validation.routes value="never"/>
        <duration-log.disable value="true"/>
        <no-step-log value="true"/>
    </report>

    <gui_only>
        <gui-settings-file value="SUMO/gui-settings.cfg"/>
    </gui_only>

</configuration>
-->

<tripinfos xmlns:xsi="http://www.w3.org/2001/XMLSchema-instance" xsi:noNamespaceSchemaLocation="http://sumo.dlr.de/xsd/tripinfo_file.xsd">
    <tripinfo id="random0" depart="50.00" departLane="gneE0_0" departPos="5.10" departSpeed="0.00" departDelay="0.00" arrival="117.00" arrivalLane="gneE0_0" arrivalPos="671.08" arrivalSpeed="11.71" duration="67.00" routeLength="665.98" waitingTime="0.00" waitingCount="0" stopTime="0.00" timeLoss="10.66" rerouteNo="0" devices="tripinfo_random0" vType="type1" speedFactor="1.06" vaporized=""/>
    <tripinfo id="random1" depart="50.00" departLane="gneE1_0" departPos="5.10" departSpeed="0.00" departDelay="0.00" arrival="125.00" arrivalLane="gneE2_0" arrivalPos="491.30" arrivalSpeed="11.97" duration="75.00" routeLength="701.88" waitingTime="0.00" waitingCount="0" stopTime="0.00" timeLoss="15.86" rerouteNo="0" devices="tripinfo_random1" vType="type1" speedFactor="0.94" vaporized=""/>
    <tripinfo id="random12" depart="65.00" departLane="gneE0_0" departPos="5.10" departSpeed="0.00" departDelay="5.00" arrival="126.00" arrivalLane="gneE0_0" arrivalPos="671.08" arrivalSpeed="11.40" duration="61.00" routeLength="665.98" waitingTime="0.00" waitingCount="0" stopTime="0.00" timeLoss="7.20" rerouteNo="0" devices="tripinfo_random12" vType="type2" speedFactor="1.05" vaporized=""/>
    <tripinfo id="random10" depart="60.00" departLane="gneE0_0" departPos="5.10" departSpeed="0.00" departDelay="0.00" arrival="127.00" arrivalLane="gneE0_1" arrivalPos="671.08" arrivalSpeed="11.95" duration="67.00" routeLength="665.98" waitingTime="0.00" waitingCount="0" stopTime="0.00" timeLoss="10.77" rerouteNo="0" devices="tripinfo_random10" vType="type1" speedFactor="1.09" vaporized=""/>
    <tripinfo id="random2" depart="55.00" departLane="gneE1_0" departPos="5.10" departSpeed="0.00" departDelay="5.00" arrival="130.00" arrivalLane="gneE2_0" arrivalPos="491.30" arrivalSpeed="11.64" duration="75.00" routeLength="701.88" waitingTime="0.00" waitingCount="0" stopTime="0.00" timeLoss="15.69" rerouteNo="0" devices="tripinfo_random2" vType="type1" speedFactor="1.01" vaporized=""/>
    <tripinfo id="random5" depart="55.00" departLane="gneE0_0" departPos="5.10" departSpeed="0.00" departDelay="5.00" arrival="132.00" arrivalLane="gneE0_0" arrivalPos="671.08" arrivalSpeed="9.92" duration="77.00" routeLength="665.98" waitingTime="0.00" waitingCount="0" stopTime="0.00" timeLoss="9.39" rerouteNo="0" devices="tripinfo_random5" vType="type1" speedFactor="0.83" vaporized=""/>
    <tripinfo id="random21" depart="71.00" departLane="gneE0_0" departPos="5.10" departSpeed="0.00" departDelay="1.00" arrival="134.00" arrivalLane="gneE0_0" arrivalPos="671.08" arrivalSpeed="11.47" duration="63.00" routeLength="665.98" waitingTime="0.00" waitingCount="0" stopTime="0.00" timeLoss="7.76" rerouteNo="0" devices="tripinfo_random21" vType="type2" speedFactor="1.01" vaporized=""/>
    <tripinfo id="random31" depart="80.00" departLane="gneE0_0" departPos="5.10" departSpeed="0.00" departDelay="0.00" arrival="134.00" arrivalLane="gneE0_1" arrivalPos="671.08" arrivalSpeed="11.89" duration="54.00" routeLength="665.98" waitingTime="0.00" waitingCount="0" stopTime="0.00" timeLoss="5.93" rerouteNo="0" devices="tripinfo_random31" vType="type2" speedFactor="1.15" vaporized=""/>
    <tripinfo id="random26" depart="72.00" departLane="gneE0_0" departPos="5.10" departSpeed="0.00" departDelay="2.00" arrival="144.00" arrivalLane="gneE0_0" arrivalPos="671.08" arrivalSpeed="10.61" duration="72.00" routeLength="665.98" waitingTime="0.00" waitingCount="0" stopTime="0.00" timeLoss="10.70" rerouteNo="0" devices="tripinfo_random26" vType="type1" speedFactor="0.92" vaporized=""/>
    <tripinfo id="random32" depart="82.00" departLane="gneE0_0" departPos="5.10" departSpeed="0.00" departDelay="2.00" arrival="148.00" arrivalLane="gneE0_0" arrivalPos="671.08" arrivalSpeed="11.71" duration="66.00" routeLength="665.98" waitingTime="0.00" waitingCount="0" stopTime="0.00" timeLoss="9.80" rerouteNo="0" devices="tripinfo_random32" vType="type1" speedFactor="1.01" vaporized=""/>
    <tripinfo id="random37" depart="87.00" departLane="gneE0_0" departPos="5.10" departSpeed="0.00" departDelay="7.00" arrival="153.00" arrivalLane="gneE0_0" arrivalPos="671.08" arrivalSpeed="11.60" duration="66.00" routeLength="665.98" waitingTime="0.00" waitingCount="0" stopTime="0.00" timeLoss="10.15" rerouteNo="0" devices="tripinfo_random37" vType="type1" speedFactor="1.18" vaporized=""/>
    <tripinfo id="random3" depart="50.00" departLane="gneE3_0" departPos="8.10" departSpeed="0.00" departDelay="0.00" arrival="157.00" arrivalLane="gneE4_0" arrivalPos="431.40" arrivalSpeed="7.93" duration="107.00" routeLength="772.51" waitingTime="0.00" waitingCount="0" stopTime="0.00" timeLoss="9.60" rerouteNo="0" devices="tripinfo_random3" vType="type3" speedFactor="1.08" vaporized=""/>
    <tripinfo id="random19" depart="66.00" departLane="gneE0_0" departPos="8.10" departSpeed="0.00" departDelay="6.00" arrival="157.00" arrivalLane="gneE0_0" arrivalPos="671.08" arrivalSpeed="7.93" duration="91.00" routeLength="662.98" waitingTime="0.00" waitingCount="0" stopTime="0.00" timeLoss="7.71" rerouteNo="0" devices="tripinfo_random19" vType="type3" speedFactor="1.16" vaporized=""/>
    <tripinfo id="random51" depart="104.00" departLane="gneE0_0" departPos="5.10" departSpeed="0.00" departDelay="4.00" arrival="158.00" arrivalLane="gneE0_1" arrivalPos="671.08" arrivalSpeed="13.90" duration="54.00" routeLength="665.98" waitingTime="0.00" waitingCount="0" stopTime="0.00" timeLoss="6.10" rerouteNo="0" devices="tripinfo_random51" vType="type2" speedFactor="1.17" vaporized=""/>
    <tripinfo id="random43" depart="92.00" departLane="gneE0_0" departPos="5.10" departSpeed="0.00" departDelay="2.00" arrival="159.00" arrivalLane="gneE0_0" arrivalPos="671.08" arrivalSpeed="10.40" duration="67.00" routeLength="665.98" waitingTime="0.00" waitingCount="0" stopTime="0.00" timeLoss="11.24" rerouteNo="0" devices="tripinfo_random43" vType="type1" speedFactor="1.04" vaporized=""/>
    <tripinfo id="random4" depart="61.00" departLane="gneE1_0" departPos="8.10" departSpeed="0.00" departDelay="11.00" arrival="160.00" arrivalLane="gneE2_0" arrivalPos="491.30" arrivalSpeed="7.86" duration="99.00" routeLength="698.88" waitingTime="1.00" waitingCount="1" stopTime="0.00" timeLoss="11.36" rerouteNo="0" devices="tripinfo_random4" vType="type3" speedFactor="1.03" vaporized=""/>
    <tripinfo id="random6" depart="67.00" departLane="gneE1_0" departPos="5.10" departSpeed="0.00" departDelay="17.00" arrival="162.00" arrivalLane="gneE2_0" arrivalPos="491.30" arrivalSpeed="8.71" duration="95.00" routeLength="701.88" waitingTime="0.00" waitingCount="0" stopTime="0.00" timeLoss="36.46" rerouteNo="0" devices="tripinfo_random6" vType="type1" speedFactor="1.05" vaporized=""/>
    <tripinfo id="random53" depart="105.00" departLane="gneE0_0" departPos="5.10" departSpeed="0.00" departDelay="5.00" arrival="163.00" arrivalLane="gneE0_1" arrivalPos="671.08" arrivalSpeed="11.76" duration="58.00" routeLength="665.98" waitingTime="0.00" waitingCount="0" stopTime="0.00" timeLoss="7.33" rerouteNo="0" devices="tripinfo_random53" vType="type2" speedFactor="1.10" vaporized=""/>
    <tripinfo id="random7" depart="72.00" departLane="gneE1_0" departPos="5.10" departSpeed="0.00" departDelay="22.00" arrival="164.00" arrivalLane="gneE2_0" arrivalPos="491.30" arrivalSpeed="11.76" duration="92.00" routeLength="701.88" waitingTime="0.00" waitingCount="0" stopTime="0.00" timeLoss="34.65" rerouteNo="0" devices="tripinfo_random7" vType="type2" speedFactor="0.89" vaporized=""/>
    <tripinfo id="random9" depart="56.00" departLane="gneE3_0" departPos="8.10" departSpeed="0.00" departDelay="6.00" arrival="165.00" arrivalLane="gneE4_0" arrivalPos="431.40" arrivalSpeed="7.71" duration="109.00" routeLength="772.51" waitingTime="0.00" waitingCount="0" stopTime="0.00" timeLoss="11.47" rerouteNo="0" devices="tripinfo_random9" vType="type3" speedFactor="0.86" vaporized=""/>
    <tripinfo id="20" depart="99.00" departLane="gneE0_0" departPos="5.10" departSpeed="0.00" departDelay="0.40" arrival="165.00" arrivalLane="gneE0_0" arrivalPos="671.08" arrivalSpeed="11.66" duration="66.00" routeLength="665.98" waitingTime="0.00" waitingCount="0" stopTime="0.00" timeLoss="9.90" rerouteNo="0" devices="tripinfo_20" vType="type1" speedFactor="1.07" vaporized=""/>
    <tripinfo id="random11" depart="62.00" departLane="gneE3_0" departPos="5.10" departSpeed="0.00" departDelay="2.00" arrival="167.00" arrivalLane="gneE4_0" arrivalPos="431.40" arrivalSpeed="9.33" duration="105.00" routeLength="775.51" waitingTime="0.00" waitingCount="0" stopTime="0.00" timeLoss="40.14" rerouteNo="0" devices="tripinfo_random11" vType="type1" speedFactor="1.03" vaporized=""/>
    <tripinfo id="random8" depart="76.00" departLane="gneE1_0" departPos="8.10" departSpeed="0.00" departDelay="26.00" arrival="174.00" arrivalLane="gneE2_0" arrivalPos="491.30" arrivalSpeed="7.94" duration="98.00" routeLength="698.88" waitingTime="0.00" waitingCount="0" stopTime="0.00" timeLoss="9.72" rerouteNo="0" devices="tripinfo_random8" vType="type3" speedFactor="0.94" vaporized=""/>
    <tripinfo id="random54" depart="108.00" departLane="gneE0_0" departPos="5.10" departSpeed="0.00" departDelay="8.00" arrival="174.00" arrivalLane="gneE0_0" arrivalPos="671.08" arrivalSpeed="11.87" duration="66.00" routeLength="665.98" waitingTime="0.00" waitingCount="0" stopTime="0.00" timeLoss="10.07" rerouteNo="0" devices="tripinfo_random54" vType="type1" speedFactor="1.00" vaporized=""/>
    <tripinfo id="random13" depart="81.00" departLane="gneE1_0" departPos="5.10" departSpeed="0.00" departDelay="21.00" arrival="176.00" arrivalLane="gneE2_0" arrivalPos="491.30" arrivalSpeed="9.22" duration="95.00" routeLength="701.88" waitingTime="0.00" waitingCount="0" stopTime="0.00" timeLoss="35.97" rerouteNo="0" devices="tripinfo_random13" vType="type1" speedFactor="1.12" vaporized=""/>
    <tripinfo id="random16" depart="68.00" departLane="gneE3_0" departPos="8.10" departSpeed="0.00" departDelay="8.00" arrival="177.00" arrivalLane="gneE4_0" arrivalPos="431.40" arrivalSpeed="7.91" duration="109.00" routeLength="772.51" waitingTime="1.00" waitingCount="1" stopTime="0.00" timeLoss="12.42" rerouteNo="0" devices="tripinfo_random16" vType="type3" speedFactor="0.88" vaporized=""/>
    <tripinfo id="random59" depart="113.00" departLane="gneE0_0" departPos="5.10" departSpeed="0.00" departDelay="13.00" arrival="180.00" arrivalLane="gneE0_0" arrivalPos="671.08" arrivalSpeed="11.37" duration="67.00" routeLength="665.98" waitingTime="0.00" waitingCount="0" stopTime="0.00" timeLoss="9.30" rerouteNo="0" devices="tripinfo_random59" vType="type1" speedFactor="0.97" vaporized=""/>
    <tripinfo id="random18" depart="75.00" departLane="gneE3_0" departPos="8.10" departSpeed="0.00" departDelay="15.00" arrival="183.00" arrivalLane="gneE4_0" arrivalPos="431.40" arrivalSpeed="7.74" duration="108.00" routeLength="772.51" waitingTime="0.00" waitingCount="0" stopTime="0.00" timeLoss="11.02" rerouteNo="0" devices="tripinfo_random18" vType="type3" speedFactor="0.94" vaporized=""/>
    <tripinfo id="random14" depart="87.00" departLane="gneE1_0" departPos="8.10" departSpeed="0.00" departDelay="27.00" arrival="184.00" arrivalLane="gneE2_0" arrivalPos="491.30" arrivalSpeed="7.67" duration="97.00" routeLength="698.88" waitingTime="0.00" waitingCount="0" stopTime="0.00" timeLoss="9.43" rerouteNo="0" devices="tripinfo_random14" vType="type3" speedFactor="0.99" vaporized=""/>
    <tripinfo id="random15" depart="92.00" departLane="gneE1_0" departPos="5.10" departSpeed="0.00" departDelay="32.00" arrival="186.00" arrivalLane="gneE2_0" arrivalPos="491.30" arrivalSpeed="11.91" duration="94.00" routeLength="701.88" waitingTime="0.00" waitingCount="0" stopTime="0.00" timeLoss="39.22" rerouteNo="0" devices="tripinfo_random15" vType="type2" speedFactor="0.93" vaporized=""/>
    <tripinfo id="10" depart="118.00" departLane="gneE0_0" departPos="5.10" departSpeed="0.00" departDelay="14.69" arrival="187.00" arrivalLane="gneE0_0" arrivalPos="671.08" arrivalSpeed="11.29" duration="69.00" routeLength="665.98" waitingTime="0.00" waitingCount="0" stopTime="0.00" timeLoss="10.38" rerouteNo="0" devices="tripinfo_10" vType="type1" speedFactor="0.96" vaporized=""/>
    <tripinfo id="random17" depart="95.00" departLane="gneE1_0" departPos="5.10" departSpeed="0.00" departDelay="35.00" arrival="189.00" arrivalLane="gneE2_0" arrivalPos="491.30" arrivalSpeed="10.02" duration="94.00" routeLength="701.88" waitingTime="0.00" waitingCount="0" stopTime="0.00" timeLoss="34.73" rerouteNo="0" devices="tripinfo_random17" vType="type1" speedFactor="0.94" vaporized=""/>
    <tripinfo id="random20" depart="81.00" departLane="gneE3_0" departPos="8.10" departSpeed="0.00" departDelay="11.00" arrival="189.00" arrivalLane="gneE4_0" arrivalPos="431.40" arrivalSpeed="7.76" duration="108.00" routeLength="772.51" waitingTime="0.00" waitingCount="0" stopTime="0.00" timeLoss="10.28" rerouteNo="0" devices="tripinfo_random20" vType="type3" speedFactor="1.02" vaporized=""/>
    <tripinfo id="random24" depart="86.00" departLane="gneE3_0" departPos="5.10" departSpeed="0.00" departDelay="16.00" arrival="191.00" arrivalLane="gneE4_0" arrivalPos="431.40" arrivalSpeed="8.55" duration="105.00" routeLength="775.51" waitingTime="0.00" waitingCount="0" stopTime="0.00" timeLoss="39.45" rerouteNo="0" devices="tripinfo_random24" vType="type1" speedFactor="0.83" vaporized=""/>
    <tripinfo id="11" depart="123.00" departLane="gneE0_0" departPos="5.10" departSpeed="0.00" departDelay="16.85" arrival="193.00" arrivalLane="gneE0_0" arrivalPos="671.08" arrivalSpeed="10.87" duration="70.00" routeLength="665.98" waitingTime="0.00" waitingCount="0" stopTime="0.00" timeLoss="10.05" rerouteNo="0" devices="tripinfo_11" vType="type1" speedFactor="0.93" vaporized=""/>
    <tripinfo id="17" depart="128.00" departLane="gneE0_0" departPos="5.10" departSpeed="0.00" departDelay="19.18" arrival="195.00" arrivalLane="gneE0_0" arrivalPos="671.08" arrivalSpeed="11.66" duration="67.00" routeLength="665.98" waitingTime="1.00" waitingCount="1" stopTime="0.00" timeLoss="11.01" rerouteNo="0" devices="tripinfo_17" vType="type1" speedFactor="1.18" vaporized=""/>
    <tripinfo id="random29" depart="92.00" departLane="gneE3_0" departPos="8.10" departSpeed="0.00" departDelay="22.00" arrival="199.00" arrivalLane="gneE4_0" arrivalPos="431.40" arrivalSpeed="7.88" duration="107.00" routeLength="772.51" waitingTime="0.00" waitingCount="0" stopTime="0.00" timeLoss="10.00" rerouteNo="0" devices="tripinfo_random29" vType="type3" speedFactor="0.93" vaporized=""/>
    <tripinfo id="random22" depart="101.00" departLane="gneE1_0" departPos="8.10" departSpeed="0.00" departDelay="31.00" arrival="200.00" arrivalLane="gneE2_0" arrivalPos="491.30" arrivalSpeed="7.97" duration="99.00" routeLength="698.88" waitingTime="0.00" waitingCount="0" stopTime="0.00" timeLoss="10.20" rerouteNo="0" devices="tripinfo_random22" vType="type3" speedFactor="0.98" vaporized=""/>
    <tripinfo id="random30" depart="97.00" departLane="gneE3_0" departPos="5.10" departSpeed="0.00" departDelay="17.00" arrival="201.00" arrivalLane="gneE4_0" arrivalPos="431.40" arrivalSpeed="15.71" duration="104.00" routeLength="775.51" waitingTime="0.00" waitingCount="0" stopTime="0.00" timeLoss="59.09" rerouteNo="0" devices="tripinfo_random30" vType="type2" speedFactor="1.18" vaporized=""/>
    <tripinfo id="random23" depart="106.00" departLane="gneE1_0" departPos="5.10" departSpeed="0.00" departDelay="36.00" arrival="202.00" arrivalLane="gneE2_0" arrivalPos="491.30" arrivalSpeed="11.44" duration="96.00" routeLength="701.88" waitingTime="0.00" waitingCount="0" stopTime="0.00" timeLoss="38.11" rerouteNo="0" devices="tripinfo_random23" vType="type2" speedFactor="0.89" vaporized=""/>
    <tripinfo id="random25" depart="110.00" departLane="gneE1_0" departPos="8.10" departSpeed="0.00" departDelay="40.00" arrival="208.00" arrivalLane="gneE2_0" arrivalPos="491.30" arrivalSpeed="7.68" duration="98.00" routeLength="698.88" waitingTime="0.00" waitingCount="0" stopTime="0.00" timeLoss="10.15" rerouteNo="0" devices="tripinfo_random25" vType="type3" speedFactor="0.87" vaporized=""/>
    <tripinfo id="random35" depart="101.00" departLane="gneE3_0" departPos="8.10" departSpeed="0.00" departDelay="21.00" arrival="209.00" arrivalLane="gneE4_0" arrivalPos="431.40" arrivalSpeed="7.96" duration="108.00" routeLength="772.51" waitingTime="0.00" waitingCount="0" stopTime="0.00" timeLoss="10.32" rerouteNo="0" devices="tripinfo_random35" vType="type3" speedFactor="1.02" vaporized=""/>
    <tripinfo id="random27" depart="115.00" departLane="gneE1_0" departPos="5.10" departSpeed="0.00" departDelay="45.00" arrival="210.00" arrivalLane="gneE2_0" arrivalPos="491.30" arrivalSpeed="9.34" duration="95.00" routeLength="701.88" waitingTime="0.00" waitingCount="0" stopTime="0.00" timeLoss="35.62" rerouteNo="0" devices="tripinfo_random27" vType="type1" speedFactor="0.95" vaporized=""/>
    <tripinfo id="random39" depart="106.00" departLane="gneE3_0" departPos="5.10" departSpeed="0.00" departDelay="26.00" arrival="211.00" arrivalLane="gneE4_0" arrivalPos="431.40" arrivalSpeed="12.87" duration="105.00" routeLength="775.51" waitingTime="0.00" waitingCount="0" stopTime="0.00" timeLoss="46.28" rerouteNo="0" devices="tripinfo_random39" vType="type2" speedFactor="0.90" vaporized=""/>
    <tripinfo id="random28" depart="120.00" departLane="gneE1_0" departPos="5.10" departSpeed="0.00" departDelay="50.00" arrival="212.00" arrivalLane="gneE2_0" arrivalPos="491.30" arrivalSpeed="13.56" duration="92.00" routeLength="701.88" waitingTime="0.00" waitingCount="0" stopTime="0.00" timeLoss="46.78" rerouteNo="0" devices="tripinfo_random28" vType="type2" speedFactor="1.13" vaporized=""/>
    <tripinfo id="random69" depart="145.00" departLane="gneE0_0" departPos="5.10" departSpeed="0.00" departDelay="35.00" arrival="212.00" arrivalLane="gneE0_1" arrivalPos="671.08" arrivalSpeed="11.76" duration="67.00" routeLength="665.98" waitingTime="0.00" waitingCount="0" stopTime="0.00" timeLoss="10.71" rerouteNo="0" devices="tripinfo_random69" vType="type1" speedFactor="1.02" vaporized=""/>
    <tripinfo id="random65" depart="140.00" departLane="gneE0_0" departPos="5.10" departSpeed="0.00" departDelay="30.00" arrival="213.00" arrivalLane="gneE0_0" arrivalPos="671.08" arrivalSpeed="10.55" duration="73.00" routeLength="665.98" waitingTime="0.00" waitingCount="0" stopTime="0.00" timeLoss="9.37" rerouteNo="0" devices="tripinfo_random65" vType="type1" speedFactor="0.88" vaporized=""/>
    <tripinfo id="1" depart="150.00" departLane="gneE0_0" departPos="5.10" departSpeed="0.00" departDelay="40.23" arrival="216.00" arrivalLane="gneE0_0" arrivalPos="671.08" arrivalSpeed="11.99" duration="66.00" routeLength="665.98" waitingTime="0.00" waitingCount="0" stopTime="0.00" timeLoss="10.48" rerouteNo="0" devices="tripinfo_1" vType="type1" speedFactor="1.07" vaporized=""/>
    <tripinfo id="random40" depart="110.00" departLane="gneE3_0" departPos="8.10" departSpeed="0.00" departDelay="20.00" arrival="218.00" arrivalLane="gneE4_0" arrivalPos="431.40" arrivalSpeed="7.76" duration="108.00" routeLength="772.51" waitingTime="0.00" waitingCount="0" stopTime="0.00" timeLoss="10.84" rerouteNo="0" devices="tripinfo_random40" vType="type3" speedFactor="1.03" vaporized=""/>
    <tripinfo id="random41" depart="115.00" departLane="gneE3_0" departPos="5.10" departSpeed="0.00" departDelay="25.00" arrival="220.00" arrivalLane="gneE4_0" arrivalPos="431.40" arrivalSpeed="14.19" duration="105.00" routeLength="775.51" waitingTime="1.00" waitingCount="1" stopTime="0.00" timeLoss="50.66" rerouteNo="0" devices="tripinfo_random41" vType="type2" speedFactor="0.96" vaporized=""/>
    <tripinfo id="18" depart="155.00" departLane="gneE0_0" departPos="5.10" departSpeed="0.00" departDelay="44.71" arrival="221.00" arrivalLane="gneE0_0" arrivalPos="671.08" arrivalSpeed="11.99" duration="66.00" routeLength="665.98" waitingTime="0.00" waitingCount="0" stopTime="0.00" timeLoss="10.25" rerouteNo="0" devices="tripinfo_18" vType="type1" speedFactor="1.00" vaporized=""/>
    <tripinfo id="random33" depart="124.00" departLane="gneE1_0" departPos="8.10" departSpeed="0.00" departDelay="44.00" arrival="222.00" arrivalLane="gneE2_0" arrivalPos="491.30" arrivalSpeed="7.76" duration="98.00" routeLength="698.88" waitingTime="0.00" waitingCount="0" stopTime="0.00" timeLoss="10.57" rerouteNo="0" devices="tripinfo_random33" vType="type3" speedFactor="1.17" vaporized=""/>
    <tripinfo id="random42" depart="119.00" departLane="gneE3_0" departPos="5.10" departSpeed="0.00" departDelay="29.00" arrival="222.00" arrivalLane="gneE4_0" arrivalPos="431.40" arrivalSpeed="15.74" duration="103.00" routeLength="775.51" waitingTime="0.00" waitingCount="0" stopTime="0.00" timeLoss="54.63" rerouteNo="0" devices="tripinfo_random42" vType="type2" speedFactor="1.09" vaporized=""/>
    <tripinfo id="random34" depart="129.00" departLane="gneE1_0" departPos="5.10" departSpeed="0.00" departDelay="49.00" arrival="224.00" arrivalLane="gneE2_0" arrivalPos="491.30" arrivalSpeed="11.70" duration="95.00" routeLength="701.88" waitingTime="0.00" waitingCount="0" stopTime="0.00" timeLoss="43.59" rerouteNo="0" devices="tripinfo_random34" vType="type2" speedFactor="0.99" vaporized=""/>
    <tripinfo id="random46" depart="122.00" departLane="gneE3_0" departPos="5.10" departSpeed="0.00" departDelay="32.00" arrival="225.00" arrivalLane="gneE4_0" arrivalPos="431.40" arrivalSpeed="10.11" duration="103.00" routeLength="775.51" waitingTime="0.00" waitingCount="0" stopTime="0.00" timeLoss="38.02" rerouteNo="0" devices="tripinfo_random46" vType="type1" speedFactor="1.00" vaporized=""/>
    <tripinfo id="random61" depart="135.00" departLane="gneE0_0" departPos="8.10" departSpeed="0.00" departDelay="25.00" arrival="226.00" arrivalLane="gneE0_0" arrivalPos="671.08" arrivalSpeed="7.90" duration="91.00" routeLength="662.98" waitingTime="0.00" waitingCount="0" stopTime="0.00" timeLoss="7.88" rerouteNo="0" devices="tripinfo_random61" vType="type3" speedFactor="1.12" vaporized=""/>
    <tripinfo id="13" depart="160.00" departLane="gneE0_0" departPos="5.10" departSpeed="0.00" departDelay="41.44" arrival="226.00" arrivalLane="gneE0_1" arrivalPos="671.08" arrivalSpeed="11.91" duration="66.00" routeLength="665.98" waitingTime="0.00" waitingCount="0" stopTime="0.00" timeLoss="10.23" rerouteNo="0" devices="tripinfo_13" vType="type1" speedFactor="1.10" vaporized=""/>
    <tripinfo id="random47" depart="127.00" departLane="gneE3_0" departPos="5.10" departSpeed="0.00" departDelay="37.00" arrival="227.00" arrivalLane="gneE4_0" arrivalPos="431.40" arrivalSpeed="12.32" duration="100.00" routeLength="775.51" waitingTime="0.00" waitingCount="0" stopTime="0.00" timeLoss="42.00" rerouteNo="0" devices="tripinfo_random47" vType="type2" speedFactor="0.90" vaporized=""/>
    <tripinfo id="random50" depart="131.00" departLane="gneE3_0" departPos="5.10" departSpeed="0.00" departDelay="31.00" arrival="229.00" arrivalLane="gneE4_0" arrivalPos="431.40" arrivalSpeed="10.81" duration="98.00" routeLength="775.51" waitingTime="0.00" waitingCount="0" stopTime="0.00" timeLoss="32.23" rerouteNo="0" devices="tripinfo_random50" vType="type1" speedFactor="0.85" vaporized=""/>
    <tripinfo id="random73" depart="165.00" departLane="gneE0_0" departPos="5.10" departSpeed="0.00" departDelay="45.00" arrival="230.00" arrivalLane="gneE0_0" arrivalPos="671.08" arrivalSpeed="11.72" duration="65.00" routeLength="665.98" waitingTime="0.00" waitingCount="0" stopTime="0.00" timeLoss="9.06" rerouteNo="0" devices="tripinfo_random73" vType="type1" speedFactor="1.06" vaporized=""/>
    <tripinfo id="random52" depart="136.00" departLane="gneE3_0" departPos="5.10" departSpeed="0.00" departDelay="36.00" arrival="231.00" arrivalLane="gneE4_0" arrivalPos="431.40" arrivalSpeed="14.02" duration="95.00" routeLength="775.51" waitingTime="0.00" waitingCount="0" stopTime="0.00" timeLoss="42.78" rerouteNo="0" devices="tripinfo_random52" vType="type2" speedFactor="1.02" vaporized=""/>
    <tripinfo id="random36" depart="134.00" departLane="gneE1_0" departPos="8.10" departSpeed="0.00" departDelay="54.00" arrival="232.00" arrivalLane="gneE2_0" arrivalPos="491.30" arrivalSpeed="7.90" duration="98.00" routeLength="698.88" waitingTime="0.00" waitingCount="0" stopTime="0.00" timeLoss="10.36" rerouteNo="0" devices="tripinfo_random36" vType="type3" speedFactor="0.97" vaporized=""/>
    <tripinfo id="random38" depart="139.00" departLane="gneE1_0" departPos="5.10" departSpeed="0.00" departDelay="59.00" arrival="234.00" arrivalLane="gneE2_0" arrivalPos="491.30" arrivalSpeed="13.65" duration="95.00" routeLength="701.88" waitingTime="0.00" waitingCount="0" stopTime="0.00" timeLoss="48.71" rerouteNo="0" devices="tripinfo_random38" vType="type2" speedFactor="1.10" vaporized=""/>
    <tripinfo id="random44" depart="143.00" departLane="gneE1_0" departPos="5.10" departSpeed="0.00" departDelay="53.00" arrival="236.00" arrivalLane="gneE2_0" arrivalPos="491.30" arrivalSpeed="13.83" duration="93.00" routeLength="701.88" waitingTime="0.00" waitingCount="0" stopTime="0.00" timeLoss="43.92" rerouteNo="0" devices="tripinfo_random44" vType="type2" speedFactor="1.04" vaporized=""/>
    <tripinfo id="random76" depart="170.00" departLane="gneE0_0" departPos="5.10" departSpeed="0.00" departDelay="50.00" arrival="236.00" arrivalLane="gneE0_0" arrivalPos="671.08" arrivalSpeed="11.64" duration="66.00" routeLength="665.98" waitingTime="0.00" waitingCount="0" stopTime="0.00" timeLoss="10.07" rerouteNo="0" devices="tripinfo_random76" vType="type1" speedFactor="1.03" vaporized=""/>
    <tripinfo id="random45" depart="145.00" departLane="gneE1_0" departPos="5.10" departSpeed="0.00" departDelay="55.00" arrival="238.00" arrivalLane="gneE2_0" arrivalPos="491.30" arrivalSpeed="13.11" duration="93.00" routeLength="701.88" waitingTime="0.00" waitingCount="0" stopTime="0.00" timeLoss="45.85" rerouteNo="0" devices="tripinfo_random45" vType="type2" speedFactor="1.09" vaporized=""/>
    <tripinfo id="random48" depart="148.00" departLane="gneE1_0" departPos="5.10" departSpeed="0.00" departDelay="58.00" arrival="241.00" arrivalLane="gneE2_0" arrivalPos="491.30" arrivalSpeed="11.13" duration="93.00" routeLength="701.88" waitingTime="0.00" waitingCount="0" stopTime="0.00" timeLoss="33.74" rerouteNo="0" devices="tripinfo_random48" vType="type1" speedFactor="0.88" vaporized=""/>
    <tripinfo id="random49" depart="153.00" departLane="gneE1_0" departPos="5.10" departSpeed="0.00" departDelay="63.00" arrival="242.00" arrivalLane="gneE2_0" arrivalPos="491.30" arrivalSpeed="10.77" duration="89.00" routeLength="701.88" waitingTime="0.00" waitingCount="0" stopTime="0.00" timeLoss="29.54" rerouteNo="0" devices="tripinfo_random49" vType="type1" speedFactor="0.85" vaporized=""/>
    <tripinfo id="random62" depart="158.00" departLane="gneE1_0" departPos="5.10" departSpeed="0.00" departDelay="48.00" arrival="244.00" arrivalLane="gneE2_0" arrivalPos="491.30" arrivalSpeed="14.06" duration="86.00" routeLength="701.88" waitingTime="0.00" waitingCount="0" stopTime="0.00" timeLoss="35.88" rerouteNo="0" devices="tripinfo_random62" vType="type2" speedFactor="1.02" vaporized=""/>
    <tripinfo id="random55" depart="140.00" departLane="gneE3_0" departPos="8.10" departSpeed="0.00" departDelay="40.00" arrival="247.00" arrivalLane="gneE4_0" arrivalPos="431.40" arrivalSpeed="7.70" duration="107.00" routeLength="772.51" waitingTime="0.00" waitingCount="0" stopTime="0.00" timeLoss="9.74" rerouteNo="0" devices="tripinfo_random55" vType="type3" speedFactor="1.00" vaporized=""/>
    <tripinfo id="2" depart="181.00" departLane="gneE0_0" departPos="5.10" departSpeed="0.00" departDelay="59.66" arrival="249.00" arrivalLane="gneE0_0" arrivalPos="671.08" arrivalSpeed="11.16" duration="68.00" routeLength="665.98" waitingTime="0.00" waitingCount="0" stopTime="0.00" timeLoss="9.95" rerouteNo="0" devices="tripinfo_2" vType="type1" speedFactor="0.96" vaporized=""/>
    <tripinfo id="random56" depart="146.00" departLane="gneE3_0" departPos="8.10" departSpeed="0.00" departDelay="46.00" arrival="254.00" arrivalLane="gneE4_0" arrivalPos="431.40" arrivalSpeed="7.81" duration="108.00" routeLength="772.51" waitingTime="0.00" waitingCount="0" stopTime="0.00" timeLoss="10.30" rerouteNo="0" devices="tripinfo_random56" vType="type3" speedFactor="0.90" vaporized=""/>
    <tripinfo id="random57" depart="152.00" departLane="gneE3_0" departPos="8.10" departSpeed="0.00" departDelay="52.00" arrival="259.00" arrivalLane="gneE4_0" arrivalPos="431.40" arrivalSpeed="7.99" duration="107.00" routeLength="772.51" waitingTime="0.00" waitingCount="0" stopTime="0.00" timeLoss="10.04" rerouteNo="0" devices="tripinfo_random57" vType="type3" speedFactor="1.14" vaporized=""/>