<?xml version="1.0" encoding="UTF-8"?>

<!-- generated on 2021-06-19 16:58:26 by Eclipse SUMO GUI Version 1.9.2
<configuration xmlns:xsi="http://www.w3.org/2001/XMLSchema-instance" xsi:noNamespaceSchemaLocation="http://sumo.dlr.de/xsd/sumoConfiguration.xsd">

    <input>
        <net-file value="SUMO/new_acident.net.xml"/>
        <route-files value="SUMO/routes_accident.xml"/>
    </input>

    <output>
        <tripinfo-output value="SUMO/tripinfo.xml"/>
    </output>

    <time>
        <begin value="0"/>
        <end value="3600"/>
    </time>

    <processing>
        <time-to-teleport value="-1"/>
    </processing>

    <report>
        <xml-validation value="never"/>
        <xml-validation.routes value="never"/>
        <duration-log.disable value="true"/>
        <no-step-log value="true"/>
    </report>

    <gui_only>
        <gui-settings-file value="SUMO/gui-settings.cfg"/>
        <start value="true"/>
    </gui_only>

</configuration>
-->

<tripinfos xmlns:xsi="http://www.w3.org/2001/XMLSchema-instance" xsi:noNamespaceSchemaLocation="http://sumo.dlr.de/xsd/tripinfo_file.xsd">
    <tripinfo id="random1" depart="50.00" departLane="gneE10_0" departPos="5.10" departSpeed="0.00" departDelay="0.00" arrival="115.00" arrivalLane="gneE12_0" arrivalPos="438.56" arrivalSpeed="12.20" duration="65.00" routeLength="782.67" waitingTime="0.00" waitingCount="0" stopTime="0.00" timeLoss="8.46" rerouteNo="0" devices="tripinfo_random1" vType="type2" speedFactor="0.94" vaporized=""/>
    <tripinfo id="random2" depart="52.00" departLane="gneE10_0" departPos="5.10" departSpeed="0.00" departDelay="2.00" arrival="117.00" arrivalLane="gneE12_0" arrivalPos="438.56" arrivalSpeed="14.66" duration="65.00" routeLength="782.67" waitingTime="0.00" waitingCount="0" stopTime="0.00" timeLoss="12.84" rerouteNo="0" devices="tripinfo_random2" vType="type2" speedFactor="1.01" vaporized=""/>
    <tripinfo id="random4" depart="50.00" departLane="gneE9_0" departPos="5.10" departSpeed="0.00" departDelay="0.00" arrival="124.00" arrivalLane="gneE11_0" arrivalPos="491.30" arrivalSpeed="11.85" duration="74.00" routeLength="701.88" waitingTime="0.00" waitingCount="0" stopTime="0.00" timeLoss="14.66" rerouteNo="0" devices="tripinfo_random4" vType="type1" speedFactor="1.03" vaporized=""/>
    <tripinfo id="random0" depart="50.00" departLane="gneE5_0" departPos="8.10" departSpeed="0.00" departDelay="0.00" arrival="141.00" arrivalLane="gneE7_0" arrivalPos="178.18" arrivalSpeed="7.73" duration="91.00" routeLength="662.98" waitingTime="0.00" waitingCount="0" stopTime="0.00" timeLoss="7.46" rerouteNo="0" devices="tripinfo_random0" vType="type3" speedFactor="1.06" vaporized=""/>
    <tripinfo id="random9" depart="62.00" departLane="gneE5_0" departPos="5.10" departSpeed="0.00" departDelay="12.00" arrival="143.00" arrivalLane="gneE7_0" arrivalPos="178.18" arrivalSpeed="8.63" duration="81.00" routeLength="665.98" waitingTime="0.00" waitingCount="0" stopTime="0.00" timeLoss="15.88" rerouteNo="0" devices="tripinfo_random9" vType="type1" speedFactor="0.86" vaporized=""/>
    <tripinfo id="random6" depart="56.00" departLane="gneE5_0" departPos="8.10" departSpeed="0.00" departDelay="6.00" arrival="149.00" arrivalLane="gneE7_0" arrivalPos="178.18" arrivalSpeed="7.77" duration="93.00" routeLength="662.98" waitingTime="0.00" waitingCount="0" stopTime="0.00" timeLoss="9.92" rerouteNo="0" devices="tripinfo_random6" vType="type3" speedFactor="1.05" vaporized=""/>
    <tripinfo id="random14" depart="68.00" departLane="gneE5_0" departPos="5.10" departSpeed="0.00" departDelay="13.00" arrival="152.00" arrivalLane="gneE7_0" arrivalPos="178.18" arrivalSpeed="9.27" duration="84.00" routeLength="665.98" waitingTime="0.00" waitingCount="0" stopTime="0.00" timeLoss="27.26" rerouteNo="0" devices="tripinfo_random14" vType="type1" speedFactor="0.99" vaporized=""/>
    <tripinfo id="random15" depart="73.00" departLane="gneE5_0" departPos="5.10" departSpeed="0.00" departDelay="18.00" arrival="153.00" arrivalLane="gneE7_0" arrivalPos="178.18" arrivalSpeed="9.19" duration="80.00" routeLength="665.98" waitingTime="0.00" waitingCount="0" stopTime="0.00" timeLoss="20.04" rerouteNo="0" devices="tripinfo_random15" vType="type1" speedFactor="0.93" vaporized=""/>
    <tripinfo id="random5" depart="56.00" departLane="gneE9_0" departPos="8.10" departSpeed="0.00" departDelay="6.00" arrival="155.00" arrivalLane="gneE11_0" arrivalPos="491.30" arrivalSpeed="7.88" duration="99.00" routeLength="698.88" waitingTime="0.00" waitingCount="0" stopTime="0.00" timeLoss="10.84" rerouteNo="0" devices="tripinfo_random5" vType="type3" speedFactor="0.83" vaporized=""/>
    <tripinfo id="random16" depart="78.00" departLane="gneE5_0" departPos="5.10" departSpeed="0.00" departDelay="23.00" arrival="155.00" arrivalLane="gneE7_0" arrivalPos="178.18" arrivalSpeed="9.80" duration="77.00" routeLength="665.98" waitingTime="0.00" waitingCount="0" stopTime="0.00" timeLoss="13.66" rerouteNo="0" devices="tripinfo_random16" vType="type2" speedFactor="0.88" vaporized=""/>
    <tripinfo id="random21" depart="79.00" departLane="gneE5_0" departPos="5.10" departSpeed="0.00" departDelay="19.00" arrival="158.00" arrivalLane="gneE7_0" arrivalPos="178.18" arrivalSpeed="9.92" duration="79.00" routeLength="665.98" waitingTime="0.00" waitingCount="0" stopTime="0.00" timeLoss="22.91" rerouteNo="0" devices="tripinfo_random21" vType="type1" speedFactor="1.01" vaporized=""/>
    <tripinfo id="random8" depart="62.00" departLane="gneE9_0" departPos="8.10" departSpeed="0.00" departDelay="12.00" arrival="161.00" arrivalLane="gneE11_0" arrivalPos="491.30" arrivalSpeed="7.76" duration="99.00" routeLength="698.88" waitingTime="0.00" waitingCount="0" stopTime="0.00" timeLoss="11.02" rerouteNo="0" devices="tripinfo_random8" vType="type3" speedFactor="0.94" vaporized=""/>
    <tripinfo id="random24" depart="84.00" departLane="gneE5_0" departPos="5.10" departSpeed="0.00" departDelay="24.00" arrival="162.00" arrivalLane="gneE7_0" arrivalPos="178.18" arrivalSpeed="9.77" duration="78.00" routeLength="665.98" waitingTime="0.00" waitingCount="0" stopTime="0.00" timeLoss="10.55" rerouteNo="0" devices="tripinfo_random24" vType="type2" speedFactor="0.83" vaporized=""/>
    <tripinfo id="random3" depart="54.00" departLane="gneE10_0" departPos="8.10" departSpeed="0.00" departDelay="4.00" arrival="163.00" arrivalLane="gneE12_0" arrivalPos="438.56" arrivalSpeed="7.99" duration="109.00" routeLength="779.67" waitingTime="0.00" waitingCount="0" stopTime="0.00" timeLoss="10.98" rerouteNo="0" devices="tripinfo_random3" vType="type3" speedFactor="1.08" vaporized=""/>
    <tripinfo id="random26" depart="85.00" departLane="gneE5_0" departPos="5.10" departSpeed="0.00" departDelay="25.00" arrival="164.00" arrivalLane="gneE7_0" arrivalPos="178.18" arrivalSpeed="9.49" duration="79.00" routeLength="665.98" waitingTime="0.00" waitingCount="0" stopTime="0.00" timeLoss="18.22" rerouteNo="0" devices="tripinfo_random26" vType="type1" speedFactor="0.92" vaporized=""/>
    <tripinfo id="random12" depart="68.00" departLane="gneE9_0" departPos="8.10" departSpeed="0.00" departDelay="13.00" arrival="166.00" arrivalLane="gneE11_0" arrivalPos="491.30" arrivalSpeed="7.68" duration="98.00" routeLength="698.88" waitingTime="0.00" waitingCount="0" stopTime="0.00" timeLoss="9.62" rerouteNo="0" devices="tripinfo_random12" vType="type3" speedFactor="1.05" vaporized=""/>
    <tripinfo id="20" depart="90.00" departLane="gneE5_0" departPos="5.10" departSpeed="0.00" departDelay="28.87" arrival="166.00" arrivalLane="gneE7_0" arrivalPos="178.18" arrivalSpeed="9.94" duration="76.00" routeLength="665.98" waitingTime="0.00" waitingCount="0" stopTime="0.00" timeLoss="20.13" rerouteNo="0" devices="tripinfo_20" vType="type1" speedFactor="1.09" vaporized=""/>
    <tripinfo id="random13" depart="73.00" departLane="gneE9_0" departPos="5.10" departSpeed="0.00" departDelay="18.00" arrival="168.00" arrivalLane="gneE11_0" arrivalPos="491.30" arrivalSpeed="8.91" duration="95.00" routeLength="701.88" waitingTime="0.00" waitingCount="0" stopTime="0.00" timeLoss="36.17" rerouteNo="0" devices="tripinfo_random13" vType="type1" speedFactor="1.12" vaporized=""/>
    <tripinfo id="random33" depart="101.00" departLane="gneE5_0" departPos="5.10" departSpeed="0.00" departDelay="36.00" arrival="168.00" arrivalLane="gneE7_0" arrivalPos="178.18" arrivalSpeed="10.36" duration="67.00" routeLength="665.98" waitingTime="0.00" waitingCount="0" stopTime="0.00" timeLoss="10.97" rerouteNo="0" devices="tripinfo_random33" vType="type1" speedFactor="1.17" vaporized=""/>
    <tripinfo id="random7" depart="60.00" departLane="gneE10_0" departPos="8.10" departSpeed="0.00" departDelay="10.00" arrival="171.00" arrivalLane="gneE12_0" arrivalPos="438.56" arrivalSpeed="7.67" duration="111.00" routeLength="779.67" waitingTime="0.00" waitingCount="0" stopTime="0.00" timeLoss="12.14" rerouteNo="0" devices="tripinfo_random7" vType="type3" speedFactor="0.89" vaporized=""/>
    <tripinfo id="random10" depart="65.00" departLane="gneE10_0" departPos="5.10" departSpeed="0.00" departDelay="10.00" arrival="173.00" arrivalLane="gneE12_0" arrivalPos="438.56" arrivalSpeed="14.16" duration="108.00" routeLength="782.67" waitingTime="0.00" waitingCount="0" stopTime="0.00" timeLoss="58.68" rerouteNo="0" devices="tripinfo_random10" vType="type2" speedFactor="1.09" vaporized=""/>
    <tripinfo id="random11" depart="69.00" departLane="gneE10_0" departPos="5.10" departSpeed="0.00" departDelay="14.00" arrival="174.00" arrivalLane="gneE12_0" arrivalPos="438.56" arrivalSpeed="14.64" duration="105.00" routeLength="782.67" waitingTime="0.00" waitingCount="0" stopTime="0.00" timeLoss="53.93" rerouteNo="0" devices="tripinfo_random11" vType="type2" speedFactor="1.03" vaporized=""/>
    <tripinfo id="random17" depart="73.00" departLane="gneE10_0" departPos="5.10" departSpeed="0.00" departDelay="18.00" arrival="177.00" arrivalLane="gneE12_0" arrivalPos="438.56" arrivalSpeed="11.26" duration="104.00" routeLength="782.67" waitingTime="0.00" waitingCount="0" stopTime="0.00" timeLoss="38.00" rerouteNo="0" devices="tripinfo_random17" vType="type1" speedFactor="0.94" vaporized=""/>
    <tripinfo id="random19" depart="79.00" departLane="gneE9_0" departPos="8.10" departSpeed="0.00" departDelay="24.00" arrival="177.00" arrivalLane="gneE11_0" arrivalPos="491.30" arrivalSpeed="7.67" duration="98.00" routeLength="698.88" waitingTime="0.00" waitingCount="0" stopTime="0.00" timeLoss="10.14" rerouteNo="0" devices="tripinfo_random19" vType="type3" speedFactor="1.16" vaporized=""/>
    <tripinfo id="random18" depart="78.00" departLane="gneE10_0" departPos="5.10" departSpeed="0.00" departDelay="23.00" arrival="178.00" arrivalLane="gneE12_0" arrivalPos="438.56" arrivalSpeed="13.28" duration="100.00" routeLength="782.67" waitingTime="0.00" waitingCount="0" stopTime="0.00" timeLoss="44.24" rerouteNo="0" devices="tripinfo_random18" vType="type2" speedFactor="0.94" vaporized=""/>
    <tripinfo id="random23" depart="84.00" departLane="gneE9_0" departPos="5.10" departSpeed="0.00" departDelay="24.00" arrival="179.00" arrivalLane="gneE11_0" arrivalPos="491.30" arrivalSpeed="11.29" duration="95.00" routeLength="701.88" waitingTime="0.00" waitingCount="0" stopTime="0.00" timeLoss="37.68" rerouteNo="0" devices="tripinfo_random23" vType="type2" speedFactor="0.89" vaporized=""/>
    <tripinfo id="random27" depart="87.00" departLane="gneE9_0" departPos="5.10" departSpeed="0.00" departDelay="27.00" arrival="181.00" arrivalLane="gneE11_0" arrivalPos="491.30" arrivalSpeed="10.87" duration="94.00" routeLength="701.88" waitingTime="0.00" waitingCount="0" stopTime="0.00" timeLoss="34.94" rerouteNo="0" devices="tripinfo_random27" vType="type1" speedFactor="0.95" vaporized=""/>
    <tripinfo id="random30" depart="96.00" departLane="gneE5_0" departPos="8.10" departSpeed="0.00" departDelay="31.00" arrival="187.00" arrivalLane="gneE7_0" arrivalPos="178.18" arrivalSpeed="7.93" duration="91.00" routeLength="662.98" waitingTime="0.00" waitingCount="0" stopTime="0.00" timeLoss="8.02" rerouteNo="0" devices="tripinfo_random30" vType="type3" speedFactor="1.18" vaporized=""/>
    <tripinfo id="random37" depart="112.00" departLane="gneE5_0" departPos="5.10" departSpeed="0.00" departDelay="47.00" arrival="190.00" arrivalLane="gneE7_0" arrivalPos="178.18" arrivalSpeed="9.63" duration="78.00" routeLength="665.98" waitingTime="0.00" waitingCount="0" stopTime="0.00" timeLoss="21.74" rerouteNo="0" devices="tripinfo_random37" vType="type1" speedFactor="1.18" vaporized=""/>
    <tripinfo id="random20" depart="82.00" departLane="gneE10_0" departPos="8.10" departSpeed="0.00" departDelay="22.00" arrival="191.00" arrivalLane="gneE12_0" arrivalPos="438.56" arrivalSpeed="7.76" duration="109.00" routeLength="779.67" waitingTime="0.00" waitingCount="0" stopTime="0.00" timeLoss="10.62" rerouteNo="0" devices="tripinfo_random20" vType="type3" speedFactor="1.02" vaporized=""/>
    <tripinfo id="random29" depart="93.00" departLane="gneE9_0" departPos="8.10" departSpeed="0.00" departDelay="33.00" arrival="192.00" arrivalLane="gneE11_0" arrivalPos="491.30" arrivalSpeed="7.78" duration="99.00" routeLength="698.88" waitingTime="0.00" waitingCount="0" stopTime="0.00" timeLoss="10.78" rerouteNo="0" devices="tripinfo_random29" vType="type3" speedFactor="0.93" vaporized=""/>
    <tripinfo id="random22" depart="87.00" departLane="gneE10_0" departPos="5.10" departSpeed="0.00" departDelay="27.00" arrival="193.00" arrivalLane="gneE12_0" arrivalPos="438.56" arrivalSpeed="13.19" duration="106.00" routeLength="782.67" waitingTime="0.00" waitingCount="0" stopTime="0.00" timeLoss="51.35" rerouteNo="0" devices="tripinfo_random22" vType="type2" speedFactor="0.98" vaporized=""/>
    <tripinfo id="random31" depart="98.00" departLane="gneE9_0" departPos="5.10" departSpeed="0.00" departDelay="33.00" arrival="194.00" arrivalLane="gneE11_0" arrivalPos="491.30" arrivalSpeed="13.67" duration="96.00" routeLength="701.88" waitingTime="0.00" waitingCount="0" stopTime="0.00" timeLoss="51.51" rerouteNo="0" devices="tripinfo_random31" vType="type2" speedFactor="1.15" vaporized=""/>
    <tripinfo id="random34" depart="101.00" departLane="gneE9_0" departPos="5.10" departSpeed="0.00" departDelay="36.00" arrival="196.00" arrivalLane="gneE11_0" arrivalPos="491.30" arrivalSpeed="10.46" duration="95.00" routeLength="701.88" waitingTime="0.00" waitingCount="0" stopTime="0.00" timeLoss="35.83" rerouteNo="0" devices="tripinfo_random34" vType="type1" speedFactor="0.99" vaporized=""/>
    <tripinfo id="random36" depart="107.00" departLane="gneE5_0" departPos="8.10" departSpeed="0.00" departDelay="42.00" arrival="199.00" arrivalLane="gneE7_0" arrivalPos="178.18" arrivalSpeed="7.86" duration="92.00" routeLength="662.98" waitingTime="0.00" waitingCount="0" stopTime="0.00" timeLoss="8.69" rerouteNo="0" devices="tripinfo_random36" vType="type3" speedFactor="0.97" vaporized=""/>
    <tripinfo id="random25" depart="91.00" departLane="gneE10_0" departPos="8.10" departSpeed="0.00" departDelay="31.00" arrival="201.00" arrivalLane="gneE12_0" arrivalPos="438.56" arrivalSpeed="7.93" duration="110.00" routeLength="779.67" waitingTime="0.00" waitingCount="0" stopTime="0.00" timeLoss="11.86" rerouteNo="0" devices="tripinfo_random25" vType="type3" speedFactor="0.87" vaporized=""/>
    <tripinfo id="random40" depart="122.00" departLane="gneE5_0" departPos="5.10" departSpeed="0.00" departDelay="52.00" arrival="201.00" arrivalLane="gneE7_0" arrivalPos="178.18" arrivalSpeed="11.45" duration="79.00" routeLength="665.98" waitingTime="0.00" waitingCount="0" stopTime="0.00" timeLoss="24.79" rerouteNo="0" devices="tripinfo_random40" vType="type2" speedFactor="1.03" vaporized=""/>
    <tripinfo id="random28" depart="96.00" departLane="gneE10_0" departPos="5.10" departSpeed="0.00" departDelay="36.00" arrival="203.00" arrivalLane="gneE12_0" arrivalPos="438.56" arrivalSpeed="9.15" duration="107.00" routeLength="782.67" waitingTime="0.00" waitingCount="0" stopTime="0.00" timeLoss="41.42" rerouteNo="0" devices="tripinfo_random28" vType="type1" speedFactor="1.13" vaporized=""/>
    <tripinfo id="10" depart="117.00" departLane="gneE5_0" departPos="5.10" departSpeed="0.00" departDelay="50.42" arrival="203.00" arrivalLane="gneE7_0" arrivalPos="178.18" arrivalSpeed="9.40" duration="86.00" routeLength="665.98" waitingTime="0.00" waitingCount="0" stopTime="0.00" timeLoss="30.45" rerouteNo="0" devices="tripinfo_10" vType="type1" speedFactor="1.13" vaporized=""/>
    <tripinfo id="random35" depart="107.00" departLane="gneE9_0" departPos="8.10" departSpeed="0.00" departDelay="42.00" arrival="204.00" arrivalLane="gneE11_0" arrivalPos="491.30" arrivalSpeed="7.65" duration="97.00" routeLength="698.88" waitingTime="0.00" waitingCount="0" stopTime="0.00" timeLoss="9.27" rerouteNo="0" devices="tripinfo_random35" vType="type3" speedFactor="1.02" vaporized=""/>
    <tripinfo id="random32" depart="101.00" departLane="gneE10_0" departPos="5.10" departSpeed="0.00" departDelay="36.00" arrival="205.00" arrivalLane="gneE12_0" arrivalPos="438.56" arrivalSpeed="13.88" duration="104.00" routeLength="782.67" waitingTime="0.00" waitingCount="0" stopTime="0.00" timeLoss="50.69" rerouteNo="0" devices="tripinfo_random32" vType="type2" speedFactor="1.01" vaporized=""/>
    <tripinfo id="random43" depart="123.00" departLane="gneE5_0" departPos="5.10" departSpeed="0.00" departDelay="53.00" arrival="205.00" arrivalLane="gneE7_0" arrivalPos="178.18" arrivalSpeed="9.93" duration="82.00" routeLength="665.98" waitingTime="0.00" waitingCount="0" stopTime="0.00" timeLoss="26.31" rerouteNo="0" devices="tripinfo_random43" vType="type1" speedFactor="1.04" vaporized=""/>
    <tripinfo id="random38" depart="112.00" departLane="gneE9_0" departPos="5.10" departSpeed="0.00" departDelay="47.00" arrival="206.00" arrivalLane="gneE11_0" arrivalPos="491.30" arrivalSpeed="9.12" duration="94.00" routeLength="701.88" waitingTime="0.00" waitingCount="0" stopTime="0.00" timeLoss="35.35" rerouteNo="0" devices="tripinfo_random38" vType="type1" speedFactor="1.10" vaporized=""/>
    <tripinfo id="random41" depart="104.00" departLane="gneE10_0" departPos="5.10" departSpeed="0.00" departDelay="34.00" arrival="207.00" arrivalLane="gneE12_0" arrivalPos="438.56" arrivalSpeed="10.03" duration="103.00" routeLength="782.67" waitingTime="0.00" waitingCount="0" stopTime="0.00" timeLoss="36.75" rerouteNo="0" devices="tripinfo_random41" vType="type1" speedFactor="0.96" vaporized=""/>
    <tripinfo id="random44" depart="129.00" departLane="gneE5_0" departPos="5.10" departSpeed="0.00" departDelay="59.00" arrival="207.00" arrivalLane="gneE7_0" arrivalPos="178.18" arrivalSpeed="10.54" duration="78.00" routeLength="665.98" waitingTime="0.00" waitingCount="0" stopTime="0.00" timeLoss="22.11" rerouteNo="0" devices="tripinfo_random44" vType="type1" speedFactor="1.04" vaporized=""/>
    <tripinfo id="random42" depart="109.00" departLane="gneE10_0" departPos="5.10" departSpeed="0.00" departDelay="39.00" arrival="209.00" arrivalLane="gneE12_0" arrivalPos="438.56" arrivalSpeed="14.80" duration="100.00" routeLength="782.67" waitingTime="0.00" waitingCount="0" stopTime="0.00" timeLoss="50.82" rerouteNo="0" devices="tripinfo_random42" vType="type2" speedFactor="1.09" vaporized=""/>
    <tripinfo id="random53" depart="139.00" departLane="gneE5_0" departPos="5.10" departSpeed="0.00" departDelay="64.00" arrival="209.00" arrivalLane="gneE7_0" arrivalPos="178.18" arrivalSpeed="12.77" duration="70.00" routeLength="665.98" waitingTime="0.00" waitingCount="0" stopTime="0.00" timeLoss="18.70" rerouteNo="0" devices="tripinfo_random53" vType="type2" speedFactor="1.10" vaporized=""/>
    <tripinfo id="random54" depart="140.00" departLane="gneE5_0" departPos="5.10" departSpeed="0.00" departDelay="65.00" arrival="211.00" arrivalLane="gneE7_0" arrivalPos="178.18" arrivalSpeed="9.84" duration="71.00" routeLength="665.98" waitingTime="0.00" waitingCount="0" stopTime="0.00" timeLoss="15.36" rerouteNo="0" devices="tripinfo_random54" vType="type2" speedFactor="1.00" vaporized=""/>
    <tripinfo id="11" depart="134.00" departLane="gneE5_0" departPos="5.10" departSpeed="0.00" departDelay="64.59" arrival="213.00" arrivalLane="gneE7_0" arrivalPos="178.18" arrivalSpeed="11.48" duration="79.00" routeLength="665.98" waitingTime="0.00" waitingCount="0" stopTime="0.00" timeLoss="23.18" rerouteNo="0" devices="tripinfo_11" vType="type1" speedFactor="1.03" vaporized=""/>
    <tripinfo id="random55" depart="142.00" departLane="gneE5_0" departPos="5.10" departSpeed="0.00" departDelay="67.00" arrival="215.00" arrivalLane="gneE7_0" arrivalPos="178.18" arrivalSpeed="11.59" duration="73.00" routeLength="665.98" waitingTime="0.00" waitingCount="0" stopTime="0.00" timeLoss="16.68" rerouteNo="0" devices="tripinfo_random55" vType="type1" speedFactor="1.00" vaporized=""/>
    <tripinfo id="random39" depart="118.00" departLane="gneE9_0" departPos="8.10" departSpeed="0.00" departDelay="53.00" arrival="216.00" arrivalLane="gneE11_0" arrivalPos="491.30" arrivalSpeed="7.71" duration="98.00" routeLength="698.88" waitingTime="0.00" waitingCount="0" stopTime="0.00" timeLoss="9.77" rerouteNo="0" devices="tripinfo_random39" vType="type3" speedFactor="0.90" vaporized=""/>
    <tripinfo id="random57" depart="147.00" departLane="gneE5_0" departPos="5.10" departSpeed="0.00" departDelay="72.00" arrival="217.00" arrivalLane="gneE7_0" arrivalPos="178.18" arrivalSpeed="11.69" duration="70.00" routeLength="665.98" waitingTime="0.00" waitingCount="0" stopTime="0.00" timeLoss="13.61" rerouteNo="0" devices="tripinfo_random57" vType="type1" speedFactor="1.14" vaporized=""/>
    <tripinfo id="random45" depart="123.00" departLane="gneE9_0" departPos="5.10" departSpeed="0.00" departDelay="53.00" arrival="218.00" arrivalLane="gneE11_0" arrivalPos="491.30" arrivalSpeed="12.65" duration="95.00" routeLength="701.88" waitingTime="0.00" waitingCount="0" stopTime="0.00" timeLoss="47.74" rerouteNo="0" devices="tripinfo_random45" vType="type2" speedFactor="1.09" vaporized=""/>
    <tripinfo id="random46" depart="126.00" departLane="gneE9_0" departPos="5.10" departSpeed="0.00" departDelay="56.00" arrival="220.00" arrivalLane="gneE11_0" arrivalPos="491.30" arrivalSpeed="9.72" duration="94.00" routeLength="701.88" waitingTime="0.00" waitingCount="0" stopTime="0.00" timeLoss="34.35" rerouteNo="0" devices="tripinfo_random46" vType="type1" speedFactor="1.00" vaporized=""/>
    <tripinfo id="random51" depart="113.00" departLane="gneE10_0" departPos="8.10" departSpeed="0.00" departDelay="38.00" arrival="220.00" arrivalLane="gneE12_0" arrivalPos="438.56" arrivalSpeed="7.92" duration="107.00" routeLength="779.67" waitingTime="0.00" waitingCount="0" stopTime="0.00" timeLoss="9.54" rerouteNo="0" devices="tripinfo_random51" vType="type3" speedFactor="1.17" vaporized=""/>
    <tripinfo id="random59" depart="152.00" departLane="gneE5_0" departPos="5.10" departSpeed="0.00" departDelay="77.00" arrival="220.00" arrivalLane="gneE7_0" arrivalPos="178.18" arrivalSpeed="11.62" duration="68.00" routeLength="665.98" waitingTime="0.00" waitingCount="0" stopTime="0.00" timeLoss="10.30" rerouteNo="0" devices="tripinfo_random59" vType="type1" speedFactor="0.97" vaporized=""/>
    <tripinfo id="random47" depart="131.00" departLane="gneE9_0" departPos="5.10" departSpeed="0.00" departDelay="61.00" arrival="222.00" arrivalLane="gneE11_0" arrivalPos="491.30" arrivalSpeed="10.17" duration="91.00" routeLength="701.88" waitingTime="0.00" waitingCount="0" stopTime="0.00" timeLoss="31.15" rerouteNo="0" devices="tripinfo_random47" vType="type1" speedFactor="0.90" vaporized=""/>
    <tripinfo id="random60" depart="118.00" departLane="gneE10_0" departPos="5.10" departSpeed="0.00" departDelay="38.00" arrival="222.00" arrivalLane="gneE12_0" arrivalPos="438.56" arrivalSpeed="14.31" duration="104.00" routeLength="782.67" waitingTime="0.00" waitingCount="0" stopTime="0.00" timeLoss="55.46" rerouteNo="0" devices="tripinfo_random60" vType="type2" speedFactor="1.08" vaporized=""/>
    <tripinfo id="1" depart="157.00" departLane="gneE5_0" departPos="5.10" departSpeed="0.00" departDelay="78.47" arrival="223.00" arrivalLane="gneE7_0" arrivalPos="178.18" arrivalSpeed="11.79" duration="66.00" routeLength="665.98" waitingTime="0.00" waitingCount="0" stopTime="0.00" timeLoss="10.01" rerouteNo="0" devices="tripinfo_1" vType="type1" speedFactor="1.03" vaporized=""/>
    <tripinfo id="random62" depart="121.00" departLane="gneE10_0" departPos="5.10" departSpeed="0.00" departDelay="41.00" arrival="224.00" arrivalLane="gneE12_0" arrivalPos="438.56" arrivalSpeed="10.24" duration="103.00" routeLength="782.67" waitingTime="0.00" waitingCount="0" stopTime="0.00" timeLoss="37.76" rerouteNo="0" devices="tripinfo_random62" vType="type1" speedFactor="1.02" vaporized=""/>
    <tripinfo id="random63" depart="168.00" departLane="gneE5_0" departPos="5.10" departSpeed="0.00" departDelay="88.00" arrival="234.00" arrivalLane="gneE7_0" arrivalPos="178.18" arrivalSpeed="11.50" duration="66.00" routeLength="665.98" waitingTime="0.00" waitingCount="0" stopTime="0.00" timeLoss="9.02" rerouteNo="0" devices="tripinfo_random63" vType="type2" speedFactor="0.99" vaporized=""/>
    <tripinfo id="random48" depart="137.00" departLane="gneE9_0" departPos="8.10" departSpeed="0.00" departDelay="67.00" arrival="236.00" arrivalLane="gneE11_0" arrivalPos="491.30" arrivalSpeed="7.82" duration="99.00" routeLength="698.88" waitingTime="0.00" waitingCount="0" stopTime="0.00" timeLoss="10.24" rerouteNo="0" devices="tripinfo_random48" vType="type3" speedFactor="0.88" vaporized=""/>
    <tripinfo id="random65" depart="127.00" departLane="gneE10_0" departPos="8.10" departSpeed="0.00" departDelay="47.00" arrival="236.00" arrivalLane="gneE12_0" arrivalPos="438.56" arrivalSpeed="7.83" duration="109.00" routeLength="779.67" waitingTime="0.00" waitingCount="0" stopTime="0.00" timeLoss="10.60" rerouteNo="0" devices="tripinfo_random65" vType="type3" speedFactor="0.88" vaporized=""/>
    <tripinfo id="random49" depart="142.00" departLane="gneE9_0" departPos="5.10" departSpeed="0.00" departDelay="72.00" arrival="238.00" arrivalLane="gneE11_0" arrivalPos="491.30" arrivalSpeed="9.12" duration="96.00" routeLength="701.88" waitingTime="0.00" waitingCount="0" stopTime="0.00" timeLoss="36.02" rerouteNo="0" devices="tripinfo_random49" vType="type1" speedFactor="0.85" vaporized=""/>
    <tripinfo id="random66" depart="132.00" departLane="gneE10_0" departPos="5.10" departSpeed="0.00" departDelay="52.00" arrival="238.00" arrivalLane="gneE12_0" arrivalPos="438.56" arrivalSpeed="9.20" duration="106.00" routeLength="782.67" waitingTime="0.00" waitingCount="0" stopTime="0.00" timeLoss="40.23" rerouteNo="0" devices="tripinfo_random66" vType="type1" speedFactor="0.91" vaporized=""/>
    <tripinfo id="random69" depart="137.00" departLane="gneE10_0" departPos="5.10" departSpeed="0.00" departDelay="57.00" arrival="239.00" arrivalLane="gneE12_0" arrivalPos="438.56" arrivalSpeed="13.93" duration="102.00" routeLength="782.67" waitingTime="0.00" waitingCount="0" stopTime="0.00" timeLoss="50.92" rerouteNo="0" devices="tripinfo_random69" vType="type2" speedFactor="1.02" vaporized=""/>
    <tripinfo id="random50" depart="147.00" departLane="gneE9_0" departPos="5.10" departSpeed="0.00" departDelay="72.00" arrival="240.00" arrivalLane="gneE11_0" arrivalPos="491.30" arrivalSpeed="9.81" duration="93.00" routeLength="701.88" waitingTime="0.00" waitingCount="0" stopTime="0.00" timeLoss="33.15" rerouteNo="0" devices="tripinfo_random50" vType="type1" speedFactor="0.85" vaporized=""/>
    <tripinfo id="random52" depart="152.00" departLane="gneE9_0" departPos="5.10" departSpeed="0.00" departDelay="77.00" arrival="242.00" arrivalLane="gneE11_0" arrivalPos="491.30" arrivalSpeed="13.66" duration="90.00" routeLength="701.88" waitingTime="0.00" waitingCount="0" stopTime="0.00" timeLoss="39.38" rerouteNo="0" devices="tripinfo_random52" vType="type2" speedFactor="1.02" vaporized=""/>
    <tripinfo id="random70" depart="141.00" departLane="gneE10_0" departPos="8.10" departSpeed="0.00" departDelay="56.00" arrival="249.00" arrivalLane="gneE12_0" arrivalPos="438.56" arrivalSpeed="7.61" duration="108.00" routeLength="779.67" waitingTime="0.00" waitingCount="0" stopTime="0.00" timeLoss="9.61" rerouteNo="0" devices="tripinfo_random70" vType="type3" speedFactor="1.02" vaporized=""/>
    <tripinfo id="random56" depart="156.00" departLane="gneE9_0" departPos="8.10" departSpeed="0.00" departDelay="81.00" arrival="255.00" arrivalLane="gneE11_0" arrivalPos="491.30" arrivalSpeed="7.91" duration="99.00" routeLength="698.88" waitingTime="0.00" waitingCount="0" stopTime="0.00" timeLoss="11.03" rerouteNo="0" devices="tripinfo_random56" vType="type3" speedFactor="0.90" vaporized=""/>
    <tripinfo id="random61" depart="163.00" departLane="gneE5_0" departPos="8.10" departSpeed="0.00" departDelay="83.00" arrival="255.00" arrivalLane="gneE7_0" arrivalPos="178.18" arrivalSpeed="7.79" duration="92.00" routeLength="662.98" waitingTime="0.00" waitingCount="0" stopTime="0.00" timeLoss="9.02" rerouteNo="0" devices="tripinfo_random61" vType="type3" speedFactor="1.12" vaporized=""/>
    <tripinfo id="random72" depart="146.00" departLane="gneE10_0" departPos="8.10" departSpeed="0.00" departDelay="61.00" arrival="255.00" arrivalLane="gneE12_0" arrivalPos="438.56" arrivalSpeed="7.73" duration="109.00" routeLength="779.67" waitingTime="0.00" waitingCount="0" stopTime="0.00" timeLoss="10.95" rerouteNo="0" devices="tripinfo_random72" vType="type3" speedFactor="0.94" vaporized=""/>