<?xml version="1.0" encoding="UTF-8"?>

<!-- generated on 06/18/21 14:56:46 by Eclipse SUMO GUI Version 1.8.0
<configuration xmlns:xsi="http://www.w3.org/2001/XMLSchema-instance" xsi:noNamespaceSchemaLocation="http://sumo.dlr.de/xsd/sumoConfiguration.xsd">

    <input>
        <net-file value="SUMO/new.net.xml"/>
        <route-files value="SUMO/roundabout.rou.xml"/>
    </input>

    <output>
        <tripinfo-output value="SUMO/tripinfo.xml"/>
    </output>

    <time>
        <begin value="0"/>
        <end value="3600"/>
    </time>

    <processing>
        <time-to-teleport value="-1"/>
    </processing>

    <report>
        <xml-validation value="never"/>
        <xml-validation.routes value="never"/>
        <duration-log.disable value="true"/>
        <no-step-log value="true"/>
    </report>

    <gui_only>
        <gui-settings-file value="SUMO/gui-settings.cfg"/>
        <start value="true"/>
    </gui_only>

</configuration>
<<<<<<< HEAD
=======
-->

<tripinfos xmlns:xsi="http://www.w3.org/2001/XMLSchema-instance" xsi:noNamespaceSchemaLocation="http://sumo.dlr.de/xsd/tripinfo_file.xsd">
    <tripinfo id="random3" depart="57.00" departLane="gneE0_0" departPos="5.10" departSpeed="0.00" departDelay="7.00" arrival="117.00" arrivalLane="gneE0_0" arrivalPos="671.08" arrivalSpeed="10.75" duration="60.00" routeLength="665.98" waitingTime="0.00" waitingCount="0" stopTime="0.00" timeLoss="8.27" rerouteNo="0" devices="tripinfo_random3" vType="type2" speedFactor="1.08" vaporized=""/>
    <tripinfo id="random0" depart="50.00" departLane="gneE0_0" departPos="5.10" departSpeed="0.00" departDelay="0.00" arrival="119.00" arrivalLane="gneE0_1" arrivalPos="671.08" arrivalSpeed="11.69" duration="69.00" routeLength="665.98" waitingTime="0.00" waitingCount="0" stopTime="0.00" timeLoss="12.90" rerouteNo="0" devices="tripinfo_random0" vType="type1" speedFactor="1.06" vaporized=""/>
    <tripinfo id="random2" depart="55.00" departLane="gneE0_0" departPos="5.10" departSpeed="0.00" departDelay="5.00" arrival="119.00" arrivalLane="gneE0_0" arrivalPos="671.08" arrivalSpeed="10.63" duration="64.00" routeLength="665.98" waitingTime="0.00" waitingCount="0" stopTime="0.00" timeLoss="8.68" rerouteNo="0" devices="tripinfo_random2" vType="type2" speedFactor="1.01" vaporized=""/>
    <tripinfo id="random5" depart="50.00" departLane="gneE3_0" departPos="5.10" departSpeed="0.00" departDelay="0.00" arrival="122.00" arrivalLane="gneE4_0" arrivalPos="431.40" arrivalSpeed="10.98" duration="72.00" routeLength="775.51" waitingTime="0.00" waitingCount="0" stopTime="0.00" timeLoss="9.10" rerouteNo="0" devices="tripinfo_random5" vType="type2" speedFactor="0.83" vaporized=""/>
    <tripinfo id="random1" depart="50.00" departLane="gneE1_0" departPos="5.10" departSpeed="0.00" departDelay="0.00" arrival="125.00" arrivalLane="gneE2_0" arrivalPos="491.30" arrivalSpeed="11.97" duration="75.00" routeLength="701.88" waitingTime="0.00" waitingCount="0" stopTime="0.00" timeLoss="15.92" rerouteNo="0" devices="tripinfo_random1" vType="type1" speedFactor="0.94" vaporized=""/>
    <tripinfo id="random4" depart="59.00" departLane="gneE0_0" departPos="5.10" departSpeed="0.00" departDelay="9.00" arrival="125.00" arrivalLane="gneE0_0" arrivalPos="671.08" arrivalSpeed="11.64" duration="66.00" routeLength="665.98" waitingTime="0.00" waitingCount="0" stopTime="0.00" timeLoss="10.31" rerouteNo="0" devices="tripinfo_random4" vType="type1" speedFactor="1.03" vaporized=""/>
    <tripinfo id="random6" depart="64.00" departLane="gneE0_0" departPos="5.10" departSpeed="0.00" departDelay="14.00" arrival="130.00" arrivalLane="gneE0_0" arrivalPos="671.08" arrivalSpeed="11.73" duration="66.00" routeLength="665.98" waitingTime="0.00" waitingCount="0" stopTime="0.00" timeLoss="9.83" rerouteNo="0" devices="tripinfo_random6" vType="type1" speedFactor="1.05" vaporized=""/>
    <tripinfo id="random7" depart="55.00" departLane="gneE1_0" departPos="5.10" departSpeed="0.00" departDelay="5.00" arrival="130.00" arrivalLane="gneE2_0" arrivalPos="491.30" arrivalSpeed="11.82" duration="75.00" routeLength="701.88" waitingTime="0.00" waitingCount="0" stopTime="0.00" timeLoss="16.25" rerouteNo="0" devices="tripinfo_random7" vType="type1" speedFactor="0.89" vaporized=""/>
    <tripinfo id="random9" depart="60.00" departLane="gneE1_0" departPos="5.10" departSpeed="0.00" departDelay="10.00" arrival="137.00" arrivalLane="gneE2_0" arrivalPos="491.30" arrivalSpeed="10.68" duration="77.00" routeLength="701.88" waitingTime="1.00" waitingCount="1" stopTime="0.00" timeLoss="17.71" rerouteNo="0" devices="tripinfo_random9" vType="type2" speedFactor="0.86" vaporized=""/>
    <tripinfo id="random11" depart="70.00" departLane="gneE0_0" departPos="5.10" departSpeed="0.00" departDelay="10.00" arrival="137.00" arrivalLane="gneE0_1" arrivalPos="671.08" arrivalSpeed="11.91" duration="67.00" routeLength="665.98" waitingTime="0.00" waitingCount="0" stopTime="0.00" timeLoss="10.98" rerouteNo="0" devices="tripinfo_random11" vType="type1" speedFactor="1.03" vaporized=""/>
    <tripinfo id="random8" depart="69.00" departLane="gneE0_0" departPos="5.10" departSpeed="0.00" departDelay="19.00" arrival="138.00" arrivalLane="gneE0_0" arrivalPos="671.08" arrivalSpeed="10.69" duration="69.00" routeLength="665.98" waitingTime="0.00" waitingCount="0" stopTime="0.00" timeLoss="9.33" rerouteNo="0" devices="tripinfo_random8" vType="type2" speedFactor="0.94" vaporized=""/>
    <tripinfo id="random12" depart="64.00" departLane="gneE1_0" departPos="5.10" departSpeed="0.00" departDelay="4.00" arrival="139.00" arrivalLane="gneE2_0" arrivalPos="491.30" arrivalSpeed="12.18" duration="75.00" routeLength="701.88" waitingTime="0.00" waitingCount="0" stopTime="0.00" timeLoss="26.13" rerouteNo="0" devices="tripinfo_random12" vType="type2" speedFactor="1.05" vaporized=""/>
    <tripinfo id="random19" depart="85.00" departLane="gneE0_0" departPos="5.10" departSpeed="0.00" departDelay="25.00" arrival="140.00" arrivalLane="gneE0_1" arrivalPos="671.08" arrivalSpeed="11.44" duration="55.00" routeLength="665.98" waitingTime="0.00" waitingCount="0" stopTime="0.00" timeLoss="6.69" rerouteNo="0" devices="tripinfo_random19" vType="type2" speedFactor="1.16" vaporized=""/>
    <tripinfo id="random10" depart="60.00" departLane="gneE3_0" departPos="5.10" departSpeed="0.00" departDelay="0.00" arrival="141.00" arrivalLane="gneE4_0" arrivalPos="431.40" arrivalSpeed="11.88" duration="81.00" routeLength="775.51" waitingTime="0.00" waitingCount="0" stopTime="0.00" timeLoss="16.35" rerouteNo="0" devices="tripinfo_random10" vType="type1" speedFactor="1.09" vaporized=""/>
    <tripinfo id="random13" depart="75.00" departLane="gneE0_0" departPos="5.10" departSpeed="0.00" departDelay="15.00" arrival="141.00" arrivalLane="gneE0_0" arrivalPos="671.08" arrivalSpeed="11.90" duration="66.00" routeLength="665.98" waitingTime="0.00" waitingCount="0" stopTime="0.00" timeLoss="10.44" rerouteNo="0" devices="tripinfo_random13" vType="type1" speedFactor="1.12" vaporized=""/>
    <tripinfo id="random16" depart="67.00" departLane="gneE1_0" departPos="5.10" departSpeed="0.00" departDelay="7.00" arrival="142.00" arrivalLane="gneE2_0" arrivalPos="491.30" arrivalSpeed="11.86" duration="75.00" routeLength="701.88" waitingTime="0.00" waitingCount="0" stopTime="0.00" timeLoss="15.96" rerouteNo="0" devices="tripinfo_random16" vType="type1" speedFactor="0.88" vaporized=""/>
    <tripinfo id="random14" depart="80.00" departLane="gneE0_0" departPos="5.10" departSpeed="0.00" departDelay="20.00" arrival="147.00" arrivalLane="gneE0_0" arrivalPos="671.08" arrivalSpeed="11.86" duration="67.00" routeLength="665.98" waitingTime="0.00" waitingCount="0" stopTime="0.00" timeLoss="10.07" rerouteNo="0" devices="tripinfo_random14" vType="type1" speedFactor="0.99" vaporized=""/>
    <tripinfo id="random28" depart="104.00" departLane="gneE0_0" departPos="5.10" departSpeed="0.00" departDelay="34.00" arrival="160.00" arrivalLane="gneE0_0" arrivalPos="671.08" arrivalSpeed="12.44" duration="56.00" routeLength="665.98" waitingTime="0.00" waitingCount="0" stopTime="0.00" timeLoss="6.54" rerouteNo="0" devices="tripinfo_random28" vType="type2" speedFactor="1.13" vaporized=""/>
    <tripinfo id="random22" depart="98.00" departLane="gneE0_0" departPos="5.10" departSpeed="0.00" departDelay="28.00" arrival="164.00" arrivalLane="gneE0_0" arrivalPos="671.08" arrivalSpeed="9.66" duration="66.00" routeLength="665.98" waitingTime="0.00" waitingCount="0" stopTime="0.00" timeLoss="8.55" rerouteNo="0" devices="tripinfo_random22" vType="type2" speedFactor="0.98" vaporized=""/>
    <tripinfo id="random17" depart="73.00" departLane="gneE1_0" departPos="8.10" departSpeed="0.00" departDelay="13.00" arrival="171.00" arrivalLane="gneE2_0" arrivalPos="491.30" arrivalSpeed="7.99" duration="98.00" routeLength="698.88" waitingTime="0.00" waitingCount="0" stopTime="0.00" timeLoss="10.22" rerouteNo="0" devices="tripinfo_random17" vType="type3" speedFactor="0.94" vaporized=""/>
    <tripinfo id="random15" depart="66.00" departLane="gneE3_0" departPos="8.10" departSpeed="0.00" departDelay="6.00" arrival="174.00" arrivalLane="gneE4_0" arrivalPos="431.40" arrivalSpeed="7.76" duration="108.00" routeLength="772.51" waitingTime="0.00" waitingCount="0" stopTime="0.00" timeLoss="10.51" rerouteNo="0" devices="tripinfo_random15" vType="type3" speedFactor="0.93" vaporized=""/>
    <tripinfo id="random34" depart="110.00" departLane="gneE0_0" departPos="5.10" departSpeed="0.00" departDelay="30.00" arrival="174.00" arrivalLane="gneE0_0" arrivalPos="671.08" arrivalSpeed="10.12" duration="64.00" routeLength="665.98" waitingTime="0.00" waitingCount="0" stopTime="0.00" timeLoss="7.64" rerouteNo="0" devices="tripinfo_random34" vType="type2" speedFactor="0.99" vaporized=""/>
    <tripinfo id="random35" depart="112.00" departLane="gneE0_0" departPos="5.10" departSpeed="0.00" departDelay="32.00" arrival="176.00" arrivalLane="gneE0_1" arrivalPos="671.08" arrivalSpeed="12.02" duration="64.00" routeLength="665.98" waitingTime="0.00" waitingCount="0" stopTime="0.00" timeLoss="8.84" rerouteNo="0" devices="tripinfo_random35" vType="type2" speedFactor="1.02" vaporized=""/>
    <tripinfo id="random18" depart="79.00" departLane="gneE1_0" departPos="8.10" departSpeed="0.00" departDelay="19.00" arrival="178.00" arrivalLane="gneE2_0" arrivalPos="491.30" arrivalSpeed="7.75" duration="99.00" routeLength="698.88" waitingTime="0.00" waitingCount="0" stopTime="0.00" timeLoss="11.28" rerouteNo="0" devices="tripinfo_random18" vType="type3" speedFactor="0.94" vaporized=""/>
    <tripinfo id="random20" depart="87.00" departLane="gneE0_0" departPos="8.10" departSpeed="0.00" departDelay="17.00" arrival="178.00" arrivalLane="gneE0_0" arrivalPos="671.08" arrivalSpeed="7.97" duration="91.00" routeLength="662.98" waitingTime="0.00" waitingCount="0" stopTime="0.00" timeLoss="7.88" rerouteNo="0" devices="tripinfo_random20" vType="type3" speedFactor="1.02" vaporized=""/>
    <tripinfo id="random51" depart="116.00" departLane="gneE0_0" departPos="5.10" departSpeed="0.00" departDelay="16.00" arrival="178.00" arrivalLane="gneE0_1" arrivalPos="671.08" arrivalSpeed="13.15" duration="62.00" routeLength="665.98" waitingTime="0.00" waitingCount="0" stopTime="0.00" timeLoss="13.61" rerouteNo="0" devices="tripinfo_random51" vType="type2" speedFactor="1.17" vaporized=""/>
    <tripinfo id="random24" depart="84.00" departLane="gneE1_0" departPos="5.10" departSpeed="0.00" departDelay="14.00" arrival="180.00" arrivalLane="gneE2_0" arrivalPos="491.30" arrivalSpeed="8.99" duration="96.00" routeLength="701.88" waitingTime="0.00" waitingCount="0" stopTime="0.00" timeLoss="34.02" rerouteNo="0" devices="tripinfo_random24" vType="type1" speedFactor="0.83" vaporized=""/>
    <tripinfo id="random53" depart="118.00" departLane="gneE0_0" departPos="5.10" departSpeed="0.00" departDelay="18.00" arrival="180.00" arrivalLane="gneE0_1" arrivalPos="671.08" arrivalSpeed="12.91" duration="62.00" routeLength="665.98" waitingTime="0.00" waitingCount="0" stopTime="0.00" timeLoss="10.64" rerouteNo="0" devices="tripinfo_random53" vType="type2" speedFactor="1.10" vaporized=""/>
    <tripinfo id="random23" depart="72.00" departLane="gneE3_0" departPos="8.10" departSpeed="0.00" departDelay="2.00" arrival="181.00" arrivalLane="gneE4_0" arrivalPos="431.40" arrivalSpeed="7.87" duration="109.00" routeLength="772.51" waitingTime="0.00" waitingCount="0" stopTime="0.00" timeLoss="11.73" rerouteNo="0" devices="tripinfo_random23" vType="type3" speedFactor="0.89" vaporized=""/>
    <tripinfo id="random42" depart="114.00" departLane="gneE0_0" departPos="5.10" departSpeed="0.00" departDelay="24.00" arrival="182.00" arrivalLane="gneE0_1" arrivalPos="671.08" arrivalSpeed="10.75" duration="68.00" routeLength="665.98" waitingTime="0.00" waitingCount="0" stopTime="0.00" timeLoss="16.64" rerouteNo="0" devices="tripinfo_random42" vType="type2" speedFactor="1.09" vaporized=""/>
    <tripinfo id="random27" depart="77.00" departLane="gneE3_0" departPos="5.10" departSpeed="0.00" departDelay="7.00" arrival="183.00" arrivalLane="gneE4_0" arrivalPos="431.40" arrivalSpeed="12.56" duration="106.00" routeLength="775.51" waitingTime="0.00" waitingCount="0" stopTime="0.00" timeLoss="50.43" rerouteNo="0" devices="tripinfo_random27" vType="type2" speedFactor="0.95" vaporized=""/>
    <tripinfo id="random21" depart="93.00" departLane="gneE0_0" departPos="8.10" departSpeed="0.00" departDelay="23.00" arrival="185.00" arrivalLane="gneE0_0" arrivalPos="671.08" arrivalSpeed="7.65" duration="92.00" routeLength="662.98" waitingTime="0.00" waitingCount="0" stopTime="0.00" timeLoss="8.21" rerouteNo="0" devices="tripinfo_random21" vType="type3" speedFactor="1.01" vaporized=""/>
    <tripinfo id="random36" depart="80.00" departLane="gneE3_0" departPos="5.10" departSpeed="0.00" departDelay="0.00" arrival="185.00" arrivalLane="gneE4_0" arrivalPos="431.40" arrivalSpeed="13.34" duration="105.00" routeLength="775.51" waitingTime="0.00" waitingCount="0" stopTime="0.00" timeLoss="51.12" rerouteNo="0" devices="tripinfo_random36" vType="type2" speedFactor="0.97" vaporized=""/>
    <tripinfo id="random38" depart="84.00" departLane="gneE3_0" departPos="5.10" departSpeed="0.00" departDelay="4.00" arrival="187.00" arrivalLane="gneE4_0" arrivalPos="431.40" arrivalSpeed="10.34" duration="103.00" routeLength="775.51" waitingTime="0.00" waitingCount="0" stopTime="0.00" timeLoss="37.59" rerouteNo="0" devices="tripinfo_random38" vType="type1" speedFactor="1.10" vaporized=""/>
    <tripinfo id="random25" depart="90.00" departLane="gneE1_0" departPos="8.10" departSpeed="0.00" departDelay="20.00" arrival="189.00" arrivalLane="gneE2_0" arrivalPos="491.30" arrivalSpeed="7.75" duration="99.00" routeLength="698.88" waitingTime="0.00" waitingCount="0" stopTime="0.00" timeLoss="11.02" rerouteNo="0" devices="tripinfo_random25" vType="type3" speedFactor="0.87" vaporized=""/>
    <tripinfo id="random43" depart="90.00" departLane="gneE3_0" departPos="5.10" departSpeed="0.00" departDelay="0.00" arrival="189.00" arrivalLane="gneE4_0" arrivalPos="431.40" arrivalSpeed="10.13" duration="99.00" routeLength="775.51" waitingTime="0.00" waitingCount="0" stopTime="0.00" timeLoss="33.56" rerouteNo="0" devices="tripinfo_random43" vType="type1" speedFactor="1.04" vaporized=""/>
    <tripinfo id="random26" depart="99.00" departLane="gneE0_0" departPos="8.10" departSpeed="0.00" departDelay="29.00" arrival="190.00" arrivalLane="gneE0_0" arrivalPos="671.08" arrivalSpeed="7.72" duration="91.00" routeLength="662.98" waitingTime="0.00" waitingCount="0" stopTime="0.00" timeLoss="7.40" rerouteNo="0" devices="tripinfo_random26" vType="type3" speedFactor="0.92" vaporized=""/>
    <tripinfo id="random30" depart="95.00" departLane="gneE1_0" departPos="5.10" departSpeed="0.00" departDelay="15.00" arrival="191.00" arrivalLane="gneE2_0" arrivalPos="491.30" arrivalSpeed="8.97" duration="96.00" routeLength="701.88" waitingTime="0.00" waitingCount="0" stopTime="0.00" timeLoss="37.19" rerouteNo="0" devices="tripinfo_random30" vType="type1" speedFactor="1.18" vaporized=""/>
    <tripinfo id="random44" depart="95.00" departLane="gneE3_0" departPos="5.10" departSpeed="0.00" departDelay="5.00" arrival="191.00" arrivalLane="gneE4_0" arrivalPos="431.40" arrivalSpeed="10.50" duration="96.00" routeLength="775.51" waitingTime="0.00" waitingCount="0" stopTime="0.00" timeLoss="30.38" rerouteNo="0" devices="tripinfo_random44" vType="type1" speedFactor="1.04" vaporized=""/>
    <tripinfo id="random48" depart="100.00" departLane="gneE3_0" departPos="5.10" departSpeed="0.00" departDelay="10.00" arrival="193.00" arrivalLane="gneE4_0" arrivalPos="431.40" arrivalSpeed="11.02" duration="93.00" routeLength="775.51" waitingTime="0.00" waitingCount="0" stopTime="0.00" timeLoss="27.07" rerouteNo="0" devices="tripinfo_random48" vType="type1" speedFactor="0.88" vaporized=""/>
    <tripinfo id="random50" depart="105.00" departLane="gneE3_0" departPos="5.10" departSpeed="0.00" departDelay="5.00" arrival="195.00" arrivalLane="gneE4_0" arrivalPos="431.40" arrivalSpeed="11.66" duration="90.00" routeLength="775.51" waitingTime="0.00" waitingCount="0" stopTime="0.00" timeLoss="24.53" rerouteNo="0" devices="tripinfo_random50" vType="type1" speedFactor="0.85" vaporized=""/>
    <tripinfo id="random52" depart="110.00" departLane="gneE3_0" departPos="5.10" departSpeed="0.00" departDelay="10.00" arrival="196.00" arrivalLane="gneE4_0" arrivalPos="431.40" arrivalSpeed="14.28" duration="86.00" routeLength="775.51" waitingTime="0.00" waitingCount="0" stopTime="0.00" timeLoss="34.98" rerouteNo="0" devices="tripinfo_random52" vType="type2" speedFactor="1.02" vaporized=""/>
    <tripinfo id="random29" depart="105.00" departLane="gneE0_0" departPos="8.10" departSpeed="0.00" departDelay="35.00" arrival="197.00" arrivalLane="gneE0_0" arrivalPos="671.08" arrivalSpeed="7.82" duration="92.00" routeLength="662.98" waitingTime="0.00" waitingCount="0" stopTime="0.00" timeLoss="8.46" rerouteNo="0" devices="tripinfo_random29" vType="type3" speedFactor="0.93" vaporized=""/>
    <tripinfo id="random56" depart="125.00" departLane="gneE0_0" departPos="5.10" departSpeed="0.00" departDelay="25.00" arrival="197.00" arrivalLane="gneE0_1" arrivalPos="671.08" arrivalSpeed="10.61" duration="72.00" routeLength="665.98" waitingTime="0.00" waitingCount="0" stopTime="0.00" timeLoss="9.74" rerouteNo="0" devices="tripinfo_random56" vType="type1" speedFactor="0.90" vaporized=""/>
    <tripinfo id="random31" depart="102.00" departLane="gneE1_0" departPos="8.10" departSpeed="0.00" departDelay="22.00" arrival="199.00" arrivalLane="gneE2_0" arrivalPos="491.30" arrivalSpeed="7.63" duration="97.00" routeLength="698.88" waitingTime="0.00" waitingCount="0" stopTime="0.00" timeLoss="9.05" rerouteNo="0" devices="tripinfo_random31" vType="type3" speedFactor="1.15" vaporized=""/>
    <tripinfo id="20" depart="136.00" departLane="gneE0_0" departPos="5.10" departSpeed="0.00" departDelay="32.73" arrival="202.00" arrivalLane="gneE0_0" arrivalPos="671.08" arrivalSpeed="11.98" duration="66.00" routeLength="665.98" waitingTime="0.00" waitingCount="0" stopTime="0.00" timeLoss="10.21" rerouteNo="0" devices="tripinfo_20" vType="type1" speedFactor="1.07" vaporized=""/>
    <tripinfo id="random32" depart="108.00" departLane="gneE1_0" departPos="8.10" departSpeed="0.00" departDelay="28.00" arrival="206.00" arrivalLane="gneE2_0" arrivalPos="491.30" arrivalSpeed="7.82" duration="98.00" routeLength="698.88" waitingTime="0.00" waitingCount="0" stopTime="0.00" timeLoss="10.57" rerouteNo="0" devices="tripinfo_random32" vType="type3" speedFactor="1.01" vaporized=""/>
    <tripinfo id="random55" depart="120.00" departLane="gneE0_0" departPos="8.10" departSpeed="0.00" departDelay="20.00" arrival="210.00" arrivalLane="gneE0_0" arrivalPos="671.08" arrivalSpeed="7.99" duration="90.00" routeLength="662.98" waitingTime="0.00" waitingCount="0" stopTime="0.00" timeLoss="7.07" rerouteNo="0" devices="tripinfo_random55" vType="type3" speedFactor="1.00" vaporized=""/>
    <tripinfo id="random33" depart="114.00" departLane="gneE1_0" departPos="8.10" departSpeed="0.00" departDelay="34.00" arrival="211.00" arrivalLane="gneE2_0" arrivalPos="491.30" arrivalSpeed="7.83" duration="97.00" routeLength="698.88" waitingTime="0.00" waitingCount="0" stopTime="0.00" timeLoss="9.04" rerouteNo="0" devices="tripinfo_random33" vType="type3" speedFactor="1.17" vaporized=""/>
    <tripinfo id="random37" depart="119.00" departLane="gneE1_0" departPos="5.10" departSpeed="0.00" departDelay="39.00" arrival="213.00" arrivalLane="gneE2_0" arrivalPos="491.30" arrivalSpeed="15.38" duration="94.00" routeLength="701.88" waitingTime="0.00" waitingCount="0" stopTime="0.00" timeLoss="50.54" rerouteNo="0" devices="tripinfo_random37" vType="type2" speedFactor="1.18" vaporized=""/>
    <tripinfo id="random63" depart="147.00" departLane="gneE0_0" departPos="5.10" departSpeed="0.00" departDelay="37.00" arrival="214.00" arrivalLane="gneE0_0" arrivalPos="671.08" arrivalSpeed="11.57" duration="67.00" routeLength="665.98" waitingTime="0.00" waitingCount="0" stopTime="0.00" timeLoss="10.22" rerouteNo="0" devices="tripinfo_random63" vType="type1" speedFactor="0.99" vaporized=""/>
    <tripinfo id="random39" depart="123.00" departLane="gneE1_0" departPos="8.10" departSpeed="0.00" departDelay="43.00" arrival="222.00" arrivalLane="gneE2_0" arrivalPos="491.30" arrivalSpeed="7.95" duration="99.00" routeLength="698.88" waitingTime="0.00" waitingCount="0" stopTime="0.00" timeLoss="10.30" rerouteNo="0" devices="tripinfo_random39" vType="type3" speedFactor="0.90" vaporized=""/>
    <tripinfo id="random60" depart="114.00" departLane="gneE3_0" departPos="8.10" departSpeed="0.00" departDelay="4.00" arrival="222.00" arrivalLane="gneE4_0" arrivalPos="431.40" arrivalSpeed="7.66" duration="108.00" routeLength="772.51" waitingTime="0.00" waitingCount="0" stopTime="0.00" timeLoss="10.61" rerouteNo="0" devices="tripinfo_random60" vType="type3" speedFactor="1.08" vaporized=""/>
    <tripinfo id="random64" depart="152.00" departLane="gneE0_0" departPos="5.10" departSpeed="0.00" departDelay="42.00" arrival="222.00" arrivalLane="gneE0_1" arrivalPos="671.08" arrivalSpeed="11.13" duration="70.00" routeLength="665.98" waitingTime="0.00" waitingCount="0" stopTime="0.00" timeLoss="9.88" rerouteNo="0" devices="tripinfo_random64" vType="type1" speedFactor="0.94" vaporized=""/>
    <tripinfo id="random57" depart="131.00" departLane="gneE0_0" departPos="8.10" departSpeed="0.00" departDelay="31.00" arrival="223.00" arrivalLane="gneE0_0" arrivalPos="671.08" arrivalSpeed="7.60" duration="92.00" routeLength="662.98" waitingTime="0.00" waitingCount="0" stopTime="0.00" timeLoss="8.38" rerouteNo="0" devices="tripinfo_random57" vType="type3" speedFactor="1.14" vaporized=""/>
    <tripinfo id="random40" depart="128.00" departLane="gneE1_0" departPos="5.10" departSpeed="0.00" departDelay="38.00" arrival="224.00" arrivalLane="gneE2_0" arrivalPos="491.30" arrivalSpeed="13.28" duration="96.00" routeLength="701.88" waitingTime="0.00" waitingCount="0" stopTime="0.00" timeLoss="45.78" rerouteNo="0" devices="tripinfo_random40" vType="type2" speedFactor="1.03" vaporized=""/>
    <tripinfo id="random62" depart="119.00" departLane="gneE3_0" departPos="5.10" departSpeed="0.00" departDelay="9.00" arrival="224.00" arrivalLane="gneE4_0" arrivalPos="431.40" arrivalSpeed="9.02" duration="105.00" routeLength="775.51" waitingTime="0.00" waitingCount="0" stopTime="0.00" timeLoss="39.94" rerouteNo="0" devices="tripinfo_random62" vType="type1" speedFactor="1.02" vaporized=""/>
    <tripinfo id="random68" depart="124.00" departLane="gneE3_0" departPos="5.10" departSpeed="0.00" departDelay="14.00" arrival="226.00" arrivalLane="gneE4_0" arrivalPos="431.40" arrivalSpeed="9.13" duration="102.00" routeLength="775.51" waitingTime="0.00" waitingCount="0" stopTime="0.00" timeLoss="36.92" rerouteNo="0" devices="tripinfo_random68" vType="type1" speedFactor="1.04" vaporized=""/>
    <tripinfo id="random41" depart="132.00" departLane="gneE1_0" departPos="8.10" departSpeed="0.00" departDelay="42.00" arrival="230.00" arrivalLane="gneE2_0" arrivalPos="491.30" arrivalSpeed="7.93" duration="98.00" routeLength="698.88" waitingTime="0.00" waitingCount="0" stopTime="0.00" timeLoss="10.40" rerouteNo="0" devices="tripinfo_random41" vType="type3" speedFactor="0.96" vaporized=""/>
    <tripinfo id="random45" depart="137.00" departLane="gneE1_0" departPos="5.10" departSpeed="0.00" departDelay="47.00" arrival="232.00" arrivalLane="gneE2_0" arrivalPos="491.30" arrivalSpeed="13.67" duration="95.00" routeLength="701.88" waitingTime="0.00" waitingCount="0" stopTime="0.00" timeLoss="48.01" rerouteNo="0" devices="tripinfo_random45" vType="type2" speedFactor="1.09" vaporized=""/>
    <tripinfo id="random65" depart="158.00" departLane="gneE0_0" departPos="5.10" departSpeed="0.00" departDelay="48.00" arrival="232.00" arrivalLane="gneE0_1" arrivalPos="671.08" arrivalSpeed="8.80" duration="74.00" routeLength="665.98" waitingTime="0.00" waitingCount="0" stopTime="0.00" timeLoss="10.58" rerouteNo="0" devices="tripinfo_random65" vType="type2" speedFactor="0.88" vaporized=""/>
    <tripinfo id="random61" depart="142.00" departLane="gneE0_0" departPos="8.10" departSpeed="0.00" departDelay="32.00" arrival="233.00" arrivalLane="gneE0_0" arrivalPos="671.08" arrivalSpeed="7.65" duration="91.00" routeLength="662.98" waitingTime="0.00" waitingCount="0" stopTime="0.00" timeLoss="7.46" rerouteNo="0" devices="tripinfo_random61" vType="type3" speedFactor="1.12" vaporized=""/>
    <tripinfo id="10" depart="164.00" departLane="gneE0_0" departPos="5.10" departSpeed="0.00" departDelay="52.92" arrival="234.00" arrivalLane="gneE0_1" arrivalPos="671.08" arrivalSpeed="11.34" duration="70.00" routeLength="665.98" waitingTime="0.00" waitingCount="0" stopTime="0.00" timeLoss="11.34" rerouteNo="0" devices="tripinfo_10" vType="type1" speedFactor="0.96" vaporized=""/>
    <tripinfo id="17" depart="169.00" departLane="gneE0_0" departPos="5.10" departSpeed="0.00" departDelay="57.92" arrival="236.00" arrivalLane="gneE0_0" arrivalPos="671.08" arrivalSpeed="11.64" duration="67.00" routeLength="665.98" waitingTime="0.00" waitingCount="0" stopTime="0.00" timeLoss="10.74" rerouteNo="0" devices="tripinfo_17" vType="type1" speedFactor="1.18" vaporized=""/>
    <tripinfo id="random69" depart="130.00" departLane="gneE3_0" departPos="8.10" departSpeed="0.00" departDelay="20.00" arrival="237.00" arrivalLane="gneE4_0" arrivalPos="431.40" arrivalSpeed="7.71" duration="107.00" routeLength="772.51" waitingTime="0.00" waitingCount="0" stopTime="0.00" timeLoss="10.12" rerouteNo="0" devices="tripinfo_random69" vType="type3" speedFactor="1.02" vaporized=""/>
    <tripinfo id="random46" depart="141.00" departLane="gneE1_0" departPos="8.10" departSpeed="0.00" departDelay="51.00" arrival="239.00" arrivalLane="gneE2_0" arrivalPos="491.30" arrivalSpeed="7.96" duration="98.00" routeLength="698.88" waitingTime="0.00" waitingCount="0" stopTime="0.00" timeLoss="9.79" rerouteNo="0" devices="tripinfo_random46" vType="type3" speedFactor="1.00" vaporized=""/>
    <tripinfo id="random71" depart="135.00" departLane="gneE3_0" departPos="5.10" departSpeed="0.00" departDelay="15.00" arrival="239.00" arrivalLane="gneE4_0" arrivalPos="431.40" arrivalSpeed="9.44" duration="104.00" routeLength="775.51" waitingTime="0.00" waitingCount="0" stopTime="0.00" timeLoss="38.55" rerouteNo="0" devices="tripinfo_random71" vType="type1" speedFactor="0.97" vaporized=""/>
    <tripinfo id="random47" depart="146.00" departLane="gneE1_0" departPos="5.10" departSpeed="0.00" departDelay="56.00" arrival="241.00" arrivalLane="gneE2_0" arrivalPos="491.30" arrivalSpeed="8.98" duration="95.00" routeLength="701.88" waitingTime="0.00" waitingCount="0" stopTime="0.00" timeLoss="36.38" rerouteNo="0" devices="tripinfo_random47" vType="type1" speedFactor="0.90" vaporized=""/>
    <tripinfo id="random80" depart="140.00" departLane="gneE3_0" departPos="5.10" departSpeed="0.00" departDelay="10.00" arrival="241.00" arrivalLane="gneE4_0" arrivalPos="431.40" arrivalSpeed="14.53" duration="101.00" routeLength="775.51" waitingTime="0.00" waitingCount="0" stopTime="0.00" timeLoss="49.77" rerouteNo="0" devices="tripinfo_random80" vType="type2" speedFactor="1.03" vaporized=""/>
    <tripinfo id="random49" depart="151.00" departLane="gneE1_0" departPos="5.10" departSpeed="0.00" departDelay="61.00" arrival="243.00" arrivalLane="gneE2_0" arrivalPos="491.30" arrivalSpeed="9.50" duration="92.00" routeLength="701.88" waitingTime="0.00" waitingCount="0" stopTime="0.00" timeLoss="32.24" rerouteNo="0" devices="tripinfo_random49" vType="type2" speedFactor="0.85" vaporized=""/>
    <tripinfo id="random83" depart="144.00" departLane="gneE3_0" departPos="5.10" departSpeed="0.00" departDelay="14.00" arrival="243.00" arrivalLane="gneE4_0" arrivalPos="431.40" arrivalSpeed="13.12" duration="99.00" routeLength="775.51" waitingTime="0.00" waitingCount="0" stopTime="0.00" timeLoss="44.15" rerouteNo="0" devices="tripinfo_random83" vType="type2" speedFactor="0.97" vaporized=""/>
    <tripinfo id="random87" depart="147.00" departLane="gneE3_0" departPos="5.10" departSpeed="0.00" departDelay="17.00" arrival="245.00" arrivalLane="gneE4_0" arrivalPos="431.40" arrivalSpeed="10.95" duration="98.00" routeLength="775.51" waitingTime="0.00" waitingCount="0" stopTime="0.00" timeLoss="32.44" rerouteNo="0" devices="tripinfo_random87" vType="type1" speedFactor="1.04" vaporized=""/>