<?xml version="1.0" encoding="UTF-8"?>

<!-- generated on 06/19/21 16:07:32 by Eclipse SUMO GUI Version 1.8.0
<configuration xmlns:xsi="http://www.w3.org/2001/XMLSchema-instance" xsi:noNamespaceSchemaLocation="http://sumo.dlr.de/xsd/sumoConfiguration.xsd">

    <input>
        <net-file value="SUMO/new.net.xml"/>
        <route-files value="SUMO/roundabout.rou.xml"/>
    </input>

    <output>
        <tripinfo-output value="SUMO/tripinfo.xml"/>
    </output>

    <time>
        <begin value="0"/>
        <end value="3600"/>
    </time>

    <processing>
        <time-to-teleport value="-1"/>
    </processing>

    <report>
        <xml-validation value="never"/>
        <xml-validation.routes value="never"/>
        <duration-log.disable value="true"/>
        <no-step-log value="true"/>
    </report>

    <gui_only>
        <gui-settings-file value="SUMO/gui-settings.cfg"/>
        <start value="true"/>
    </gui_only>

</configuration>
-->

<tripinfos xmlns:xsi="http://www.w3.org/2001/XMLSchema-instance" xsi:noNamespaceSchemaLocation="http://sumo.dlr.de/xsd/tripinfo_file.xsd">
    <tripinfo id="random1" depart="50.00" departLane="gneE1_0" departPos="5.10" departSpeed="0.00" departDelay="0.00" arrival="114.00" arrivalLane="gneE2_0" arrivalPos="491.30" arrivalSpeed="11.49" duration="64.00" routeLength="701.88" waitingTime="0.00" waitingCount="0" stopTime="0.00" timeLoss="9.62" rerouteNo="0" devices="tripinfo_random1" vType="type2" speedFactor="0.94" vaporized=""/>
    <tripinfo id="random12" depart="55.00" departLane="gneE0_0" departPos="5.10" departSpeed="0.00" departDelay="0.00" arrival="122.00" arrivalLane="gneE0_0" arrivalPos="671.08" arrivalSpeed="11.91" duration="67.00" routeLength="665.98" waitingTime="0.00" waitingCount="0" stopTime="0.00" timeLoss="10.87" rerouteNo="0" devices="tripinfo_random12" vType="type1" speedFactor="1.05" vaporized=""/>
    <tripinfo id="random3" depart="52.00" departLane="gneE1_0" departPos="5.10" departSpeed="0.00" departDelay="2.00" arrival="126.00" arrivalLane="gneE2_0" arrivalPos="491.30" arrivalSpeed="11.75" duration="74.00" routeLength="701.88" waitingTime="0.00" waitingCount="0" stopTime="0.00" timeLoss="15.13" rerouteNo="0" devices="tripinfo_random3" vType="type1" speedFactor="1.08" vaporized=""/>
    <tripinfo id="random4" depart="57.00" departLane="gneE1_0" departPos="5.10" departSpeed="0.00" departDelay="7.00" arrival="131.00" arrivalLane="gneE2_0" arrivalPos="491.30" arrivalSpeed="11.78" duration="74.00" routeLength="701.88" waitingTime="0.00" waitingCount="0" stopTime="0.00" timeLoss="15.43" rerouteNo="0" devices="tripinfo_random4" vType="type1" speedFactor="1.03" vaporized=""/>
    <tripinfo id="random5" depart="62.00" departLane="gneE1_0" departPos="5.10" departSpeed="0.00" departDelay="12.00" arrival="139.00" arrivalLane="gneE2_0" arrivalPos="491.30" arrivalSpeed="11.31" duration="77.00" routeLength="701.88" waitingTime="0.00" waitingCount="0" stopTime="0.00" timeLoss="15.30" rerouteNo="0" devices="tripinfo_random5" vType="type1" speedFactor="0.83" vaporized=""/>
    <tripinfo id="random15" depart="71.00" departLane="gneE0_0" departPos="5.10" departSpeed="0.00" departDelay="16.00" arrival="140.00" arrivalLane="gneE0_0" arrivalPos="671.08" arrivalSpeed="10.18" duration="69.00" routeLength="665.98" waitingTime="0.00" waitingCount="0" stopTime="0.00" timeLoss="8.82" rerouteNo="0" devices="tripinfo_random15" vType="type2" speedFactor="0.93" vaporized=""/>
    <tripinfo id="random18" depart="72.00" departLane="gneE0_0" departPos="5.10" departSpeed="0.00" departDelay="17.00" arrival="141.00" arrivalLane="gneE0_1" arrivalPos="671.08" arrivalSpeed="10.64" duration="69.00" routeLength="665.98" waitingTime="0.00" waitingCount="0" stopTime="0.00" timeLoss="9.61" rerouteNo="0" devices="tripinfo_random18" vType="type2" speedFactor="0.94" vaporized=""/>
    <tripinfo id="random7" depart="67.00" departLane="gneE1_0" departPos="5.10" departSpeed="0.00" departDelay="17.00" arrival="143.00" arrivalLane="gneE2_0" arrivalPos="491.30" arrivalSpeed="11.81" duration="76.00" routeLength="701.88" waitingTime="0.00" waitingCount="0" stopTime="0.00" timeLoss="16.04" rerouteNo="0" devices="tripinfo_random7" vType="type1" speedFactor="0.89" vaporized=""/>
    <tripinfo id="random20" depart="74.00" departLane="gneE0_0" departPos="5.10" departSpeed="0.00" departDelay="14.00" arrival="143.00" arrivalLane="gneE0_1" arrivalPos="671.08" arrivalSpeed="11.72" duration="69.00" routeLength="665.98" waitingTime="0.00" waitingCount="0" stopTime="0.00" timeLoss="14.44" rerouteNo="0" devices="tripinfo_random20" vType="type2" speedFactor="1.02" vaporized=""/>
    <tripinfo id="random28" depart="82.00" departLane="gneE0_0" departPos="5.10" departSpeed="0.00" departDelay="22.00" arrival="144.00" arrivalLane="gneE0_0" arrivalPos="671.08" arrivalSpeed="12.02" duration="62.00" routeLength="665.98" waitingTime="0.00" waitingCount="0" stopTime="0.00" timeLoss="12.23" rerouteNo="0" devices="tripinfo_random28" vType="type2" speedFactor="1.13" vaporized=""/>
    <tripinfo id="random8" depart="72.00" departLane="gneE1_0" departPos="5.10" departSpeed="0.00" departDelay="22.00" arrival="145.00" arrivalLane="gneE2_0" arrivalPos="491.30" arrivalSpeed="10.87" duration="73.00" routeLength="701.88" waitingTime="0.00" waitingCount="0" stopTime="0.00" timeLoss="18.48" rerouteNo="0" devices="tripinfo_random8" vType="type2" speedFactor="0.94" vaporized=""/>
    <tripinfo id="random14" depart="66.00" departLane="gneE0_0" departPos="5.10" departSpeed="0.00" departDelay="11.00" arrival="146.00" arrivalLane="gneE0_0" arrivalPos="671.08" arrivalSpeed="11.70" duration="80.00" routeLength="665.98" waitingTime="0.00" waitingCount="0" stopTime="0.00" timeLoss="23.49" rerouteNo="0" devices="tripinfo_random14" vType="type1" speedFactor="0.99" vaporized=""/>
    <tripinfo id="random31" depart="84.00" departLane="gneE0_0" departPos="5.10" departSpeed="0.00" departDelay="19.00" arrival="150.00" arrivalLane="gneE0_1" arrivalPos="671.08" arrivalSpeed="11.79" duration="66.00" routeLength="665.98" waitingTime="0.00" waitingCount="0" stopTime="0.00" timeLoss="9.74" rerouteNo="0" devices="tripinfo_random31" vType="type1" speedFactor="1.15" vaporized=""/>
    <tripinfo id="random13" depart="61.00" departLane="gneE0_0" departPos="8.10" departSpeed="0.00" departDelay="6.00" arrival="152.00" arrivalLane="gneE0_0" arrivalPos="671.08" arrivalSpeed="7.91" duration="91.00" routeLength="662.98" waitingTime="0.00" waitingCount="0" stopTime="0.00" timeLoss="8.03" rerouteNo="0" devices="tripinfo_random13" vType="type3" speedFactor="1.12" vaporized=""/>
    <tripinfo id="random25" depart="77.00" departLane="gneE0_0" departPos="5.10" departSpeed="0.00" departDelay="17.00" arrival="153.00" arrivalLane="gneE0_1" arrivalPos="671.08" arrivalSpeed="10.38" duration="76.00" routeLength="665.98" waitingTime="0.00" waitingCount="0" stopTime="0.00" timeLoss="11.87" rerouteNo="0" devices="tripinfo_random25" vType="type1" speedFactor="0.87" vaporized=""/>
    <tripinfo id="random0" depart="50.00" departLane="gneE3_0" departPos="8.10" departSpeed="0.00" departDelay="0.00" arrival="157.00" arrivalLane="gneE4_0" arrivalPos="431.40" arrivalSpeed="7.79" duration="107.00" routeLength="772.51" waitingTime="0.00" waitingCount="0" stopTime="0.00" timeLoss="9.69" rerouteNo="0" devices="tripinfo_random0" vType="type3" speedFactor="1.06" vaporized=""/>
    <tripinfo id="random34" depart="94.00" departLane="gneE0_0" departPos="5.10" departSpeed="0.00" departDelay="29.00" arrival="162.00" arrivalLane="gneE0_0" arrivalPos="671.08" arrivalSpeed="11.90" duration="68.00" routeLength="665.98" waitingTime="0.00" waitingCount="0" stopTime="0.00" timeLoss="11.61" rerouteNo="0" devices="tripinfo_random34" vType="type1" speedFactor="0.99" vaporized=""/>
    <tripinfo id="random2" depart="56.00" departLane="gneE3_0" departPos="8.10" departSpeed="0.00" departDelay="6.00" arrival="163.00" arrivalLane="gneE4_0" arrivalPos="431.40" arrivalSpeed="7.97" duration="107.00" routeLength="772.51" waitingTime="0.00" waitingCount="0" stopTime="0.00" timeLoss="10.43" rerouteNo="0" devices="tripinfo_random2" vType="type3" speedFactor="1.01" vaporized=""/>
    <tripinfo id="random6" depart="63.00" departLane="gneE3_0" departPos="8.10" departSpeed="0.00" departDelay="13.00" arrival="171.00" arrivalLane="gneE4_0" arrivalPos="431.40" arrivalSpeed="7.65" duration="108.00" routeLength="772.51" waitingTime="0.00" waitingCount="0" stopTime="0.00" timeLoss="10.74" rerouteNo="0" devices="tripinfo_random6" vType="type3" speedFactor="1.05" vaporized=""/>
    <tripinfo id="random39" depart="100.00" departLane="gneE0_0" departPos="5.10" departSpeed="0.00" departDelay="35.00" arrival="172.00" arrivalLane="gneE0_0" arrivalPos="671.08" arrivalSpeed="10.72" duration="72.00" routeLength="665.98" waitingTime="0.00" waitingCount="0" stopTime="0.00" timeLoss="9.98" rerouteNo="0" devices="tripinfo_random39" vType="type1" speedFactor="0.90" vaporized=""/>
    <tripinfo id="random43" depart="105.00" departLane="gneE0_0" departPos="5.10" departSpeed="0.00" departDelay="35.00" arrival="172.00" arrivalLane="gneE0_1" arrivalPos="671.08" arrivalSpeed="11.98" duration="67.00" routeLength="665.98" waitingTime="0.00" waitingCount="0" stopTime="0.00" timeLoss="10.81" rerouteNo="0" devices="tripinfo_random43" vType="type1" speedFactor="1.04" vaporized=""/>
    <tripinfo id="random9" depart="68.00" departLane="gneE3_0" departPos="5.10" departSpeed="0.00" departDelay="18.00" arrival="173.00" arrivalLane="gneE4_0" arrivalPos="431.40" arrivalSpeed="12.43" duration="105.00" routeLength="775.51" waitingTime="0.00" waitingCount="0" stopTime="0.00" timeLoss="43.86" rerouteNo="0" devices="tripinfo_random9" vType="type2" speedFactor="0.86" vaporized=""/>
    <tripinfo id="random10" depart="76.00" departLane="gneE1_0" departPos="8.10" departSpeed="0.00" departDelay="21.00" arrival="174.00" arrivalLane="gneE2_0" arrivalPos="491.30" arrivalSpeed="7.62" duration="98.00" routeLength="698.88" waitingTime="0.00" waitingCount="0" stopTime="0.00" timeLoss="9.92" rerouteNo="0" devices="tripinfo_random10" vType="type3" speedFactor="1.09" vaporized=""/>
    <tripinfo id="random17" depart="82.00" departLane="gneE1_0" departPos="5.10" departSpeed="0.00" departDelay="27.00" arrival="176.00" arrivalLane="gneE2_0" arrivalPos="491.30" arrivalSpeed="9.49" duration="94.00" routeLength="701.88" waitingTime="0.00" waitingCount="0" stopTime="0.00" timeLoss="35.05" rerouteNo="0" devices="tripinfo_random17" vType="type1" speedFactor="0.94" vaporized=""/>
    <tripinfo id="random54" depart="110.00" departLane="gneE0_0" departPos="5.10" departSpeed="0.00" departDelay="35.00" arrival="177.00" arrivalLane="gneE0_1" arrivalPos="671.08" arrivalSpeed="11.63" duration="67.00" routeLength="665.98" waitingTime="0.00" waitingCount="0" stopTime="0.00" timeLoss="11.00" rerouteNo="0" devices="tripinfo_random54" vType="type1" speedFactor="1.00" vaporized=""/>
    <tripinfo id="random26" depart="87.00" departLane="gneE1_0" departPos="5.10" departSpeed="0.00" departDelay="27.00" arrival="178.00" arrivalLane="gneE2_0" arrivalPos="491.30" arrivalSpeed="9.89" duration="91.00" routeLength="701.88" waitingTime="0.00" waitingCount="0" stopTime="0.00" timeLoss="31.92" rerouteNo="0" devices="tripinfo_random26" vType="type1" speedFactor="0.92" vaporized=""/>
    <tripinfo id="random11" depart="72.00" departLane="gneE3_0" departPos="8.10" departSpeed="0.00" departDelay="17.00" arrival="180.00" arrivalLane="gneE4_0" arrivalPos="431.40" arrivalSpeed="7.87" duration="108.00" routeLength="772.51" waitingTime="0.00" waitingCount="0" stopTime="0.00" timeLoss="10.90" rerouteNo="0" devices="tripinfo_random11" vType="type3" speedFactor="1.03" vaporized=""/>
    <tripinfo id="random32" depart="92.00" departLane="gneE1_0" departPos="5.10" departSpeed="0.00" departDelay="27.00" arrival="180.00" arrivalLane="gneE2_0" arrivalPos="491.30" arrivalSpeed="10.06" duration="88.00" routeLength="701.88" waitingTime="0.00" waitingCount="0" stopTime="0.00" timeLoss="28.81" rerouteNo="0" devices="tripinfo_random32" vType="type1" speedFactor="1.01" vaporized=""/>
    <tripinfo id="random55" depart="115.00" departLane="gneE0_0" departPos="5.10" departSpeed="0.00" departDelay="40.00" arrival="180.00" arrivalLane="gneE0_1" arrivalPos="671.08" arrivalSpeed="11.85" duration="65.00" routeLength="665.98" waitingTime="0.00" waitingCount="0" stopTime="0.00" timeLoss="8.37" rerouteNo="0" devices="tripinfo_random55" vType="type2" speedFactor="1.00" vaporized=""/>
    <tripinfo id="random33" depart="90.00" departLane="gneE0_0" departPos="8.10" departSpeed="0.00" departDelay="25.00" arrival="181.00" arrivalLane="gneE0_0" arrivalPos="671.08" arrivalSpeed="7.72" duration="91.00" routeLength="662.98" waitingTime="0.00" waitingCount="0" stopTime="0.00" timeLoss="7.22" rerouteNo="0" devices="tripinfo_random33" vType="type3" speedFactor="1.17" vaporized=""/>
    <tripinfo id="random16" depart="77.00" departLane="gneE3_0" departPos="5.10" departSpeed="0.00" departDelay="22.00" arrival="182.00" arrivalLane="gneE4_0" arrivalPos="431.40" arrivalSpeed="9.09" duration="105.00" routeLength="775.51" waitingTime="0.00" waitingCount="0" stopTime="0.00" timeLoss="39.48" rerouteNo="0" devices="tripinfo_random16" vType="type1" speedFactor="0.88" vaporized=""/>
    <tripinfo id="random19" depart="82.00" departLane="gneE3_0" departPos="5.10" departSpeed="0.00" departDelay="27.00" arrival="184.00" arrivalLane="gneE4_0" arrivalPos="431.40" arrivalSpeed="9.37" duration="102.00" routeLength="775.51" waitingTime="0.00" waitingCount="0" stopTime="0.00" timeLoss="36.52" rerouteNo="0" devices="tripinfo_random19" vType="type1" speedFactor="1.16" vaporized=""/>
    <tripinfo id="random62" depart="121.00" departLane="gneE0_0" departPos="5.10" departSpeed="0.00" departDelay="41.00" arrival="185.00" arrivalLane="gneE0_0" arrivalPos="671.08" arrivalSpeed="11.87" duration="64.00" routeLength="665.98" waitingTime="0.00" waitingCount="0" stopTime="0.00" timeLoss="8.42" rerouteNo="0" devices="tripinfo_random62" vType="type2" speedFactor="1.02" vaporized=""/>
    <tripinfo id="random21" depart="87.00" departLane="gneE3_0" departPos="5.10" departSpeed="0.00" departDelay="27.00" arrival="186.00" arrivalLane="gneE4_0" arrivalPos="431.40" arrivalSpeed="13.36" duration="99.00" routeLength="775.51" waitingTime="0.00" waitingCount="0" stopTime="0.00" timeLoss="47.37" rerouteNo="0" devices="tripinfo_random21" vType="type2" speedFactor="1.01" vaporized=""/>
    <tripinfo id="random22" depart="91.00" departLane="gneE3_0" departPos="5.10" departSpeed="0.00" departDelay="31.00" arrival="188.00" arrivalLane="gneE4_0" arrivalPos="431.40" arrivalSpeed="10.03" duration="97.00" routeLength="775.51" waitingTime="0.00" waitingCount="0" stopTime="0.00" timeLoss="32.17" rerouteNo="0" devices="tripinfo_random22" vType="type1" speedFactor="0.98" vaporized=""/>
    <tripinfo id="random23" depart="96.00" departLane="gneE3_0" departPos="5.10" departSpeed="0.00" departDelay="36.00" arrival="190.00" arrivalLane="gneE4_0" arrivalPos="431.40" arrivalSpeed="10.72" duration="94.00" routeLength="775.51" waitingTime="0.00" waitingCount="0" stopTime="0.00" timeLoss="28.96" rerouteNo="0" devices="tripinfo_random23" vType="type1" speedFactor="0.89" vaporized=""/>
    <tripinfo id="random35" depart="98.00" departLane="gneE1_0" departPos="8.10" departSpeed="0.00" departDelay="33.00" arrival="195.00" arrivalLane="gneE2_0" arrivalPos="491.30" arrivalSpeed="7.82" duration="97.00" routeLength="698.88" waitingTime="0.00" waitingCount="0" stopTime="0.00" timeLoss="9.28" rerouteNo="0" devices="tripinfo_random35" vType="type3" speedFactor="1.02" vaporized=""/>
    <tripinfo id="random36" depart="103.00" departLane="gneE1_0" departPos="5.10" departSpeed="0.00" departDelay="38.00" arrival="197.00" arrivalLane="gneE2_0" arrivalPos="491.30" arrivalSpeed="13.11" duration="94.00" routeLength="701.88" waitingTime="0.00" waitingCount="0" stopTime="0.00" timeLoss="41.48" rerouteNo="0" devices="tripinfo_random36" vType="type2" speedFactor="0.97" vaporized=""/>
    <tripinfo id="random41" depart="106.00" departLane="gneE1_0" departPos="5.10" departSpeed="0.00" departDelay="36.00" arrival="199.00" arrivalLane="gneE2_0" arrivalPos="491.30" arrivalSpeed="11.75" duration="93.00" routeLength="701.88" waitingTime="0.00" waitingCount="0" stopTime="0.00" timeLoss="39.62" rerouteNo="0" devices="tripinfo_random41" vType="type2" speedFactor="0.96" vaporized=""/>
    <tripinfo id="random42" depart="109.00" departLane="gneE1_0" departPos="5.10" departSpeed="0.00" departDelay="39.00" arrival="201.00" arrivalLane="gneE2_0" arrivalPos="491.30" arrivalSpeed="14.88" duration="92.00" routeLength="701.88" waitingTime="0.00" waitingCount="0" stopTime="0.00" timeLoss="44.82" rerouteNo="0" devices="tripinfo_random42" vType="type2" speedFactor="1.09" vaporized=""/>
    <tripinfo id="random70" depart="139.00" departLane="gneE0_0" departPos="5.10" departSpeed="0.00" departDelay="54.00" arrival="201.00" arrivalLane="gneE0_0" arrivalPos="671.08" arrivalSpeed="11.80" duration="62.00" routeLength="665.98" waitingTime="0.00" waitingCount="0" stopTime="0.00" timeLoss="7.16" rerouteNo="0" devices="tripinfo_random70" vType="type2" speedFactor="1.02" vaporized=""/>
    <tripinfo id="random45" depart="112.00" departLane="gneE1_0" departPos="5.10" departSpeed="0.00" departDelay="42.00" arrival="202.00" arrivalLane="gneE2_0" arrivalPos="491.30" arrivalSpeed="14.50" duration="90.00" routeLength="701.88" waitingTime="0.00" waitingCount="0" stopTime="0.00" timeLoss="43.42" rerouteNo="0" devices="tripinfo_random45" vType="type2" speedFactor="1.09" vaporized=""/>
    <tripinfo id="random66" depart="134.00" departLane="gneE0_0" departPos="5.10" departSpeed="0.00" departDelay="54.00" arrival="206.00" arrivalLane="gneE0_1" arrivalPos="671.08" arrivalSpeed="10.87" duration="72.00" routeLength="665.98" waitingTime="0.00" waitingCount="0" stopTime="0.00" timeLoss="10.00" rerouteNo="0" devices="tripinfo_random66" vType="type1" speedFactor="0.91" vaporized=""/>
    <tripinfo id="random61" depart="116.00" departLane="gneE0_0" departPos="8.10" departSpeed="0.00" departDelay="36.00" arrival="207.00" arrivalLane="gneE0_0" arrivalPos="671.08" arrivalSpeed="7.95" duration="91.00" routeLength="662.98" waitingTime="0.00" waitingCount="0" stopTime="0.00" timeLoss="7.54" rerouteNo="0" devices="tripinfo_random61" vType="type3" speedFactor="1.12" vaporized=""/>
    <tripinfo id="random72" depart="140.00" departLane="gneE0_0" departPos="5.10" departSpeed="0.00" departDelay="55.00" arrival="211.00" arrivalLane="gneE0_1" arrivalPos="671.08" arrivalSpeed="11.26" duration="71.00" routeLength="665.98" waitingTime="0.00" waitingCount="0" stopTime="0.00" timeLoss="11.14" rerouteNo="0" devices="tripinfo_random72" vType="type1" speedFactor="0.94" vaporized=""/>
    <tripinfo id="random24" depart="102.00" departLane="gneE3_0" departPos="8.10" departSpeed="0.00" departDelay="42.00" arrival="212.00" arrivalLane="gneE4_0" arrivalPos="431.40" arrivalSpeed="7.87" duration="110.00" routeLength="772.51" waitingTime="0.00" waitingCount="0" stopTime="0.00" timeLoss="12.28" rerouteNo="0" devices="tripinfo_random24" vType="type3" speedFactor="0.83" vaporized=""/>
    <tripinfo id="random47" depart="115.00" departLane="gneE1_0" departPos="8.10" departSpeed="0.00" departDelay="45.00" arrival="212.00" arrivalLane="gneE2_0" arrivalPos="491.30" arrivalSpeed="7.85" duration="97.00" routeLength="698.88" waitingTime="0.00" waitingCount="0" stopTime="0.00" timeLoss="9.65" rerouteNo="0" devices="tripinfo_random47" vType="type3" speedFactor="0.90" vaporized=""/>
    <tripinfo id="random73" depart="145.00" departLane="gneE0_0" departPos="5.10" departSpeed="0.00" departDelay="60.00" arrival="212.00" arrivalLane="gneE0_1" arrivalPos="671.08" arrivalSpeed="11.68" duration="67.00" routeLength="665.98" waitingTime="0.00" waitingCount="0" stopTime="0.00" timeLoss="11.35" rerouteNo="0" devices="tripinfo_random73" vType="type1" speedFactor="1.06" vaporized=""/>
    <tripinfo id="random27" depart="107.00" departLane="gneE3_0" departPos="5.10" departSpeed="0.00" departDelay="47.00" arrival="214.00" arrivalLane="gneE4_0" arrivalPos="431.40" arrivalSpeed="13.36" duration="107.00" routeLength="775.51" waitingTime="0.00" waitingCount="0" stopTime="0.00" timeLoss="51.60" rerouteNo="0" devices="tripinfo_random27" vType="type2" speedFactor="0.95" vaporized=""/>
    <tripinfo id="random63" depart="123.00" departLane="gneE0_0" departPos="8.10" departSpeed="0.00" departDelay="43.00" arrival="214.00" arrivalLane="gneE0_0" arrivalPos="671.08" arrivalSpeed="7.94" duration="91.00" routeLength="662.98" waitingTime="0.00" waitingCount="0" stopTime="0.00" timeLoss="7.28" rerouteNo="0" devices="tripinfo_random63" vType="type3" speedFactor="0.99" vaporized=""/>
    <tripinfo id="random29" depart="111.00" departLane="gneE3_0" departPos="5.10" departSpeed="0.00" departDelay="51.00" arrival="216.00" arrivalLane="gneE4_0" arrivalPos="431.40" arrivalSpeed="11.90" duration="105.00" routeLength="775.51" waitingTime="0.00" waitingCount="0" stopTime="0.00" timeLoss="48.99" rerouteNo="0" devices="tripinfo_random29" vType="type2" speedFactor="0.93" vaporized=""/>
    <tripinfo id="random30" depart="114.00" departLane="gneE3_0" departPos="5.10" departSpeed="0.00" departDelay="49.00" arrival="218.00" arrivalLane="gneE4_0" arrivalPos="431.40" arrivalSpeed="11.40" duration="104.00" routeLength="775.51" waitingTime="0.00" waitingCount="0" stopTime="0.00" timeLoss="38.80" rerouteNo="0" devices="tripinfo_random30" vType="type1" speedFactor="1.18" vaporized=""/>
    <tripinfo id="random74" depart="151.00" departLane="gneE0_0" departPos="5.10" departSpeed="0.00" departDelay="66.00" arrival="218.00" arrivalLane="gneE0_1" arrivalPos="671.08" arrivalSpeed="11.27" duration="67.00" routeLength="665.98" waitingTime="0.00" waitingCount="0" stopTime="0.00" timeLoss="8.07" rerouteNo="0" devices="tripinfo_random74" vType="type2" speedFactor="0.96" vaporized=""/>
    <tripinfo id="random37" depart="119.00" departLane="gneE3_0" departPos="5.10" departSpeed="0.00" departDelay="54.00" arrival="219.00" arrivalLane="gneE4_0" arrivalPos="431.40" arrivalSpeed="16.54" duration="100.00" routeLength="775.51" waitingTime="0.00" waitingCount="0" stopTime="0.00" timeLoss="56.05" rerouteNo="0" devices="tripinfo_random37" vType="type2" speedFactor="1.18" vaporized=""/>
    <tripinfo id="random50" depart="121.00" departLane="gneE1_0" departPos="8.10" departSpeed="0.00" departDelay="46.00" arrival="220.00" arrivalLane="gneE2_0" arrivalPos="491.30" arrivalSpeed="7.66" duration="99.00" routeLength="698.88" waitingTime="0.00" waitingCount="0" stopTime="0.00" timeLoss="11.44" rerouteNo="0" devices="tripinfo_random50" vType="type3" speedFactor="0.85" vaporized=""/>
    <tripinfo id="random65" depart="129.00" departLane="gneE0_0" departPos="8.10" departSpeed="0.00" departDelay="49.00" arrival="220.00" arrivalLane="gneE0_0" arrivalPos="671.08" arrivalSpeed="7.69" duration="91.00" routeLength="662.98" waitingTime="0.00" waitingCount="0" stopTime="0.00" timeLoss="7.70" rerouteNo="0" devices="tripinfo_random65" vType="type3" speedFactor="0.88" vaporized=""/>
    <tripinfo id="random38" depart="122.00" departLane="gneE3_0" departPos="5.10" departSpeed="0.00" departDelay="57.00" arrival="222.00" arrivalLane="gneE4_0" arrivalPos="431.40" arrivalSpeed="11.81" duration="100.00" routeLength="775.51" waitingTime="0.00" waitingCount="0" stopTime="0.00" timeLoss="33.99" rerouteNo="0" devices="tripinfo_random38" vType="type1" speedFactor="1.10" vaporized=""/>
    <tripinfo id="random52" depart="126.00" departLane="gneE1_0" departPos="5.10" departSpeed="0.00" departDelay="51.00" arrival="222.00" arrivalLane="gneE2_0" arrivalPos="491.30" arrivalSpeed="8.83" duration="96.00" routeLength="701.88" waitingTime="0.00" waitingCount="0" stopTime="0.00" timeLoss="37.50" rerouteNo="0" devices="tripinfo_random52" vType="type1" speedFactor="1.02" vaporized=""/>
    <tripinfo id="random40" depart="127.00" departLane="gneE3_0" departPos="5.10" departSpeed="0.00" departDelay="57.00" arrival="224.00" arrivalLane="gneE4_0" arrivalPos="431.40" arrivalSpeed="11.83" duration="97.00" routeLength="775.51" waitingTime="0.00" waitingCount="0" stopTime="0.00" timeLoss="31.14" rerouteNo="0" devices="tripinfo_random40" vType="type1" speedFactor="1.03" vaporized=""/>
    <tripinfo id="random53" depart="131.00" departLane="gneE1_0" departPos="5.10" departSpeed="0.00" departDelay="56.00" arrival="224.00" arrivalLane="gneE2_0" arrivalPos="491.30" arrivalSpeed="8.74" duration="93.00" routeLength="701.88" waitingTime="0.00" waitingCount="0" stopTime="0.00" timeLoss="33.90" rerouteNo="0" devices="tripinfo_random53" vType="type1" speedFactor="1.10" vaporized=""/>
    <tripinfo id="random77" depart="157.00" departLane="gneE0_0" departPos="5.10" departSpeed="0.00" departDelay="72.00" arrival="224.00" arrivalLane="gneE0_0" arrivalPos="671.08" arrivalSpeed="11.42" duration="67.00" routeLength="665.98" waitingTime="0.00" waitingCount="0" stopTime="0.00" timeLoss="10.22" rerouteNo="0" devices="tripinfo_random77" vType="type1" speedFactor="0.98" vaporized=""/>
    <tripinfo id="random44" depart="133.00" departLane="gneE3_0" departPos="5.10" departSpeed="0.00" departDelay="63.00" arrival="226.00" arrivalLane="gneE4_0" arrivalPos="431.40" arrivalSpeed="15.10" duration="93.00" routeLength="775.51" waitingTime="0.00" waitingCount="0" stopTime="0.00" timeLoss="42.61" rerouteNo="0" devices="tripinfo_random44" vType="type2" speedFactor="1.04" vaporized=""/>
    <tripinfo id="random58" depart="136.00" departLane="gneE1_0" departPos="5.10" departSpeed="0.00" departDelay="61.00" arrival="226.00" arrivalLane="gneE2_0" arrivalPos="491.30" arrivalSpeed="9.86" duration="90.00" routeLength="701.88" waitingTime="0.00" waitingCount="0" stopTime="0.00" timeLoss="31.29" rerouteNo="0" devices="tripinfo_random58" vType="type1" speedFactor="1.02" vaporized=""/>
    <tripinfo id="random46" depart="136.00" departLane="gneE3_0" departPos="5.10" departSpeed="0.00" departDelay="66.00" arrival="228.00" arrivalLane="gneE4_0" arrivalPos="431.40" arrivalSpeed="11.95" duration="92.00" routeLength="775.51" waitingTime="0.00" waitingCount="0" stopTime="0.00" timeLoss="26.69" rerouteNo="0" devices="tripinfo_random46" vType="type1" speedFactor="1.00" vaporized=""/>
    <tripinfo id="random48" depart="141.00" departLane="gneE3_0" departPos="5.10" departSpeed="0.00" departDelay="71.00" arrival="230.00" arrivalLane="gneE4_0" arrivalPos="431.40" arrivalSpeed="11.61" duration="89.00" routeLength="775.51" waitingTime="0.00" waitingCount="0" stopTime="0.00" timeLoss="23.54" rerouteNo="0" devices="tripinfo_random48" vType="type1" speedFactor="0.88" vaporized=""/>
    <tripinfo id="random80" depart="162.00" departLane="gneE0_0" departPos="5.10" departSpeed="0.00" departDelay="72.00" arrival="230.00" arrivalLane="gneE0_1" arrivalPos="671.08" arrivalSpeed="11.69" duration="68.00" routeLength="665.98" waitingTime="0.00" waitingCount="0" stopTime="0.00" timeLoss="11.83" rerouteNo="0" devices="tripinfo_random80" vType="type1" speedFactor="1.03" vaporized=""/>
    <tripinfo id="random82" depart="168.00" departLane="gneE0_0" departPos="5.10" departSpeed="0.00" departDelay="78.00" arrival="230.00" arrivalLane="gneE0_0" arrivalPos="671.08" arrivalSpeed="11.99" duration="62.00" routeLength="665.98" waitingTime="0.00" waitingCount="0" stopTime="0.00" timeLoss="6.97" rerouteNo="0" devices="tripinfo_random82" vType="type2" speedFactor="1.02" vaporized=""/>
    <tripinfo id="random60" depart="142.00" departLane="gneE1_0" departPos="8.10" departSpeed="0.00" departDelay="62.00" arrival="239.00" arrivalLane="gneE2_0" arrivalPos="491.30" arrivalSpeed="7.83" duration="97.00" routeLength="698.88" waitingTime="0.00" waitingCount="0" stopTime="0.00" timeLoss="9.59" rerouteNo="0" devices="tripinfo_random60" vType="type3" speedFactor="1.08" vaporized=""/>
    <tripinfo id="random64" depart="147.00" departLane="gneE1_0" departPos="5.10" departSpeed="0.00" departDelay="67.00" arrival="241.00" arrivalLane="gneE2_0" arrivalPos="491.30" arrivalSpeed="12.40" duration="94.00" routeLength="701.88" waitingTime="0.00" waitingCount="0" stopTime="0.00" timeLoss="39.92" rerouteNo="0" devices="tripinfo_random64" vType="type2" speedFactor="0.94" vaporized=""/>
    <tripinfo id="random90" depart="179.00" departLane="gneE0_0" departPos="5.10" departSpeed="0.00" departDelay="84.00" arrival="243.00" arrivalLane="gneE0_0" arrivalPos="671.08" arrivalSpeed="9.91" duration="64.00" routeLength="665.98" waitingTime="1.00" waitingCount="1" stopTime="0.00" timeLoss="8.63" rerouteNo="0" devices="tripinfo_random90" vType="type2" speedFactor="1.02" vaporized=""/>
    <tripinfo id="random75" depart="152.00" departLane="gneE0_0" departPos="8.10" departSpeed="0.00" departDelay="67.00" arrival="244.00" arrivalLane="gneE0_0" arrivalPos="671.08" arrivalSpeed="7.75" duration="92.00" routeLength="662.98" waitingTime="0.00" waitingCount="0" stopTime="0.00" timeLoss="8.46" rerouteNo="0" devices="tripinfo_random75" vType="type3" speedFactor="0.98" vaporized=""/>
    <tripinfo id="random71" depart="151.00" departLane="gneE1_0" departPos="8.10" departSpeed="0.00" departDelay="66.00" arrival="249.00" arrivalLane="gneE2_0" arrivalPos="491.30" arrivalSpeed="7.97" duration="98.00" routeLength="698.88" waitingTime="0.00" waitingCount="0" stopTime="0.00" timeLoss="9.70" rerouteNo="0" devices="tripinfo_random71" vType="type3" speedFactor="0.97" vaporized=""/>