<?xml version="1.0" encoding="UTF-8"?>

<!-- generated on 06/15/21 12:32:29 by Eclipse SUMO GUI Version 1.8.0
<configuration xmlns:xsi="http://www.w3.org/2001/XMLSchema-instance" xsi:noNamespaceSchemaLocation="http://sumo.dlr.de/xsd/sumoConfiguration.xsd">

    <input>
        <net-file value="SUMO/new.net.xml"/>
        <route-files value="SUMO/roundabout.rou.xml"/>
    </input>

    <output>
        <tripinfo-output value="SUMO/tripinfo.xml"/>
    </output>

    <time>
        <begin value="0"/>
        <end value="3600"/>
    </time>

    <processing>
        <time-to-teleport value="-1"/>
    </processing>

    <report>
        <xml-validation value="never"/>
        <xml-validation.routes value="never"/>
        <duration-log.disable value="true"/>
        <no-step-log value="true"/>
    </report>

    <gui_only>
        <gui-settings-file value="SUMO/gui-settings.cfg"/>
    </gui_only>

</configuration>
-->

<tripinfos xmlns:xsi="http://www.w3.org/2001/XMLSchema-instance" xsi:noNamespaceSchemaLocation="http://sumo.dlr.de/xsd/tripinfo_file.xsd">
    <tripinfo id="4" depart="23.00" departLane="gneE1_0" departPos="5.10" departSpeed="0.00" departDelay="0.50" arrival="78.00" arrivalLane="gneE2_0" arrivalPos="491.30" arrivalSpeed="14.44" duration="55.00" routeLength="701.88" waitingTime="0.00" waitingCount="0" stopTime="0.00" timeLoss="8.26" rerouteNo="0" devices="tripinfo_4" vType="type2" speedFactor="1.08" vaporized=""/>
    <tripinfo id="3" depart="13.00" departLane="gneE0_0" departPos="5.10" departSpeed="0.00" departDelay="0.00" arrival="80.00" arrivalLane="gneE0_0" arrivalPos="671.08" arrivalSpeed="11.91" duration="67.00" routeLength="665.98" waitingTime="0.00" waitingCount="0" stopTime="0.00" timeLoss="10.76" rerouteNo="0" devices="tripinfo_3" vType="type1" speedFactor="1.01" vaporized=""/>
    <tripinfo id="1" depart="23.00" departLane="gneE0_0" departPos="5.10" departSpeed="0.00" departDelay="0.00" arrival="89.00" arrivalLane="gneE0_0" arrivalPos="671.08" arrivalSpeed="11.99" duration="66.00" routeLength="665.98" waitingTime="0.00" waitingCount="0" stopTime="0.00" timeLoss="10.35" rerouteNo="0" devices="tripinfo_1" vType="type1" speedFactor="1.06" vaporized=""/>
    <tripinfo id="2" depart="38.00" departLane="gneE1_0" departPos="5.10" departSpeed="0.00" departDelay="0.50" arrival="101.00" arrivalLane="gneE2_0" arrivalPos="491.30" arrivalSpeed="11.43" duration="63.00" routeLength="701.88" waitingTime="0.00" waitingCount="0" stopTime="0.00" timeLoss="9.13" rerouteNo="0" devices="tripinfo_2" vType="type2" speedFactor="0.94" vaporized=""/>
    <tripinfo id="5" depart="29.00" departLane="gneE0_0" departPos="8.10" departSpeed="0.00" departDelay="4.00" arrival="120.00" arrivalLane="gneE0_0" arrivalPos="671.08" arrivalSpeed="7.91" duration="91.00" routeLength="662.98" waitingTime="0.00" waitingCount="0" stopTime="0.00" timeLoss="7.72" rerouteNo="0" devices="tripinfo_5" vType="type3" speedFactor="1.03" vaporized=""/>
