<?xml version="1.0" encoding="UTF-8"?>

<!-- generated on 06/08/21 01:45:39 by Eclipse SUMO GUI Version 1.8.0
<configuration xmlns:xsi="http://www.w3.org/2001/XMLSchema-instance" xsi:noNamespaceSchemaLocation="http://sumo.dlr.de/xsd/sumoConfiguration.xsd">

    <input>
        <net-file value="SUMO/new.net.xml"/>
        <route-files value="SUMO/roundabout.rou.xml"/>
    </input>

    <output>
        <tripinfo-output value="SUMO/tripinfo.xml"/>
    </output>

    <time>
        <begin value="0"/>
        <end value="3600"/>
    </time>

    <processing>
        <time-to-teleport value="-1"/>
    </processing>

    <report>
        <xml-validation value="never"/>
        <xml-validation.routes value="never"/>
        <duration-log.disable value="true"/>
        <no-step-log value="true"/>
    </report>

    <traci_server>
        <remote-port value="64186"/>
    </traci_server>

    <gui_only>
        <gui-settings-file value="SUMO/gui-settings.cfg"/>
        <start value="true"/>
    </gui_only>

</configuration>
-->

<tripinfos xmlns:xsi="http://www.w3.org/2001/XMLSchema-instance" xsi:noNamespaceSchemaLocation="http://sumo.dlr.de/xsd/tripinfo_file.xsd">
    <tripinfo id="1" depart="90.00" departLane="gneE0_0" departPos="5.10" departSpeed="0.00" departDelay="0.00" arrival="150.00" arrivalLane="gneE0_0" arrivalPos="671.08" arrivalSpeed="10.81" duration="60.00" routeLength="665.98" waitingTime="0.00" waitingCount="0" stopTime="0.00" timeLoss="6.88" rerouteNo="0" devices="tripinfo_1" vType="type2" speedFactor="1.06" vaporized=""/>
    <tripinfo id="4" depart="78.00" departLane="gneE1_0" departPos="5.10" departSpeed="0.00" departDelay="0.00" arrival="152.00" arrivalLane="gneE2_0" arrivalPos="491.30" arrivalSpeed="11.75" duration="74.00" routeLength="701.88" waitingTime="0.00" waitingCount="0" stopTime="0.00" timeLoss="14.91" rerouteNo="0" devices="tripinfo_4" vType="type1" speedFactor="1.08" vaporized=""/>
    <tripinfo id="3" depart="83.00" departLane="gneE1_0" departPos="5.10" departSpeed="0.00" departDelay="3.00" arrival="159.00" arrivalLane="gneE2_0" arrivalPos="491.30" arrivalSpeed="11.81" duration="76.00" routeLength="701.88" waitingTime="0.00" waitingCount="0" stopTime="0.00" timeLoss="16.43" rerouteNo="0" devices="tripinfo_3" vType="type1" speedFactor="1.01" vaporized=""/>
    <tripinfo id="2" depart="100.00" departLane="gneE1_0" departPos="5.10" departSpeed="0.00" departDelay="0.00" arrival="175.00" arrivalLane="gneE2_0" arrivalPos="491.30" arrivalSpeed="11.72" duration="75.00" routeLength="701.88" waitingTime="0.00" waitingCount="0" stopTime="0.00" timeLoss="15.78" rerouteNo="0" devices="tripinfo_2" vType="type1" speedFactor="0.94" vaporized=""/>
    <tripinfo id="5" depart="120.00" departLane="gneE1_0" departPos="5.10" departSpeed="0.00" departDelay="0.00" arrival="196.00" arrivalLane="gneE2_0" arrivalPos="491.30" arrivalSpeed="11.62" duration="76.00" routeLength="701.88" waitingTime="0.00" waitingCount="0" stopTime="0.00" timeLoss="16.21" rerouteNo="0" devices="tripinfo_5" vType="type1" speedFactor="1.03" vaporized=""/>
    <tripinfo id="2" depart="197.00" departLane="gneE0_0" departPos="5.10" departSpeed="0.00" departDelay="0.00" arrival="264.00" arrivalLane="gneE0_0" arrivalPos="671.08" arrivalSpeed="11.88" duration="67.00" routeLength="665.98" waitingTime="0.00" waitingCount="0" stopTime="0.00" timeLoss="11.01" rerouteNo="0" devices="tripinfo_2" vType="type1" speedFactor="1.05" vaporized=""/>
    <tripinfo id="1" depart="197.00" departLane="gneE1_0" departPos="5.10" departSpeed="0.00" departDelay="0.00" arrival="268.00" arrivalLane="gneE2_0" arrivalPos="491.30" arrivalSpeed="10.34" duration="71.00" routeLength="701.88" waitingTime="0.00" waitingCount="0" stopTime="0.00" timeLoss="9.93" rerouteNo="0" devices="tripinfo_1" vType="type2" speedFactor="0.83" vaporized=""/>
    <tripinfo id="3" depart="203.00" departLane="gneE0_0" departPos="5.10" departSpeed="0.00" departDelay="6.00" arrival="276.00" arrivalLane="gneE0_0" arrivalPos="671.08" arrivalSpeed="10.33" duration="73.00" routeLength="665.98" waitingTime="0.00" waitingCount="0" stopTime="0.00" timeLoss="10.08" rerouteNo="0" devices="tripinfo_3" vType="type1" speedFactor="0.89" vaporized=""/>
    <tripinfo id="4" depart="197.00" departLane="gneE3_0" departPos="5.10" departSpeed="0.00" departDelay="0.00" arrival="278.00" arrivalLane="gneE4_0" arrivalPos="431.40" arrivalSpeed="11.95" duration="81.00" routeLength="775.51" waitingTime="0.00" waitingCount="0" stopTime="0.00" timeLoss="15.54" rerouteNo="0" devices="tripinfo_4" vType="type1" speedFactor="0.94" vaporized=""/>
    <tripinfo id="5" depart="202.00" departLane="gneE3_0" departPos="5.10" departSpeed="0.00" departDelay="5.00" arrival="284.00" arrivalLane="gneE4_0" arrivalPos="431.40" arrivalSpeed="11.84" duration="82.00" routeLength="775.51" waitingTime="0.00" waitingCount="0" stopTime="0.00" timeLoss="16.93" rerouteNo="0" devices="tripinfo_5" vType="type1" speedFactor="0.86" vaporized=""/>
    <tripinfo id="1" depart="285.00" departLane="gneE3_0" departPos="5.10" departSpeed="0.00" departDelay="0.00" arrival="342.00" arrivalLane="gneE4_0" arrivalPos="431.40" arrivalSpeed="14.93" duration="57.00" routeLength="775.51" waitingTime="0.00" waitingCount="0" stopTime="0.00" timeLoss="8.12" rerouteNo="0" devices="tripinfo_1" vType="type2" speedFactor="1.09" vaporized=""/>
    <tripinfo id="4" depart="285.00" departLane="gneE0_0" departPos="5.10" departSpeed="0.00" departDelay="0.00" arrival="351.00" arrivalLane="gneE0_0" arrivalPos="671.08" arrivalSpeed="11.88" duration="66.00" routeLength="665.98" waitingTime="0.00" waitingCount="0" stopTime="0.00" timeLoss="10.33" rerouteNo="0" devices="tripinfo_4" vType="type1" speedFactor="1.12" vaporized=""/>
    <tripinfo id="5" depart="290.00" departLane="gneE0_0" departPos="5.10" departSpeed="0.00" departDelay="5.00" arrival="357.00" arrivalLane="gneE0_0" arrivalPos="671.08" arrivalSpeed="11.87" duration="67.00" routeLength="665.98" waitingTime="0.00" waitingCount="0" stopTime="0.00" timeLoss="10.38" rerouteNo="0" devices="tripinfo_5" vType="type1" speedFactor="0.99" vaporized=""/>
    <tripinfo id="2" depart="287.00" departLane="gneE3_0" departPos="5.10" departSpeed="0.00" departDelay="2.00" arrival="368.00" arrivalLane="gneE4_0" arrivalPos="431.40" arrivalSpeed="11.99" duration="81.00" routeLength="775.51" waitingTime="0.00" waitingCount="0" stopTime="0.00" timeLoss="15.80" rerouteNo="0" devices="tripinfo_2" vType="type1" speedFactor="1.03" vaporized=""/>
    <tripinfo id="3" depart="292.00" departLane="gneE3_0" departPos="5.10" departSpeed="0.00" departDelay="7.00" arrival="373.00" arrivalLane="gneE4_0" arrivalPos="431.40" arrivalSpeed="11.68" duration="81.00" routeLength="775.51" waitingTime="0.00" waitingCount="0" stopTime="0.00" timeLoss="15.93" rerouteNo="0" devices="tripinfo_3" vType="type1" speedFactor="1.05" vaporized=""/>
