<?xml version="1.0" encoding="UTF-8"?>

<!-- generated on 06/16/21 12:02:13 by Eclipse SUMO GUI Version 1.8.0
<configuration xmlns:xsi="http://www.w3.org/2001/XMLSchema-instance" xsi:noNamespaceSchemaLocation="http://sumo.dlr.de/xsd/sumoConfiguration.xsd">

    <input>
        <net-file value="SUMO/new.net.xml"/>
        <route-files value="SUMO/roundabout.rou.xml"/>
    </input>

    <output>
        <tripinfo-output value="SUMO/tripinfo.xml"/>
    </output>

    <time>
        <begin value="0"/>
        <end value="3600"/>
    </time>

    <processing>
        <time-to-teleport value="-1"/>
    </processing>

    <report>
        <xml-validation value="never"/>
        <xml-validation.routes value="never"/>
        <duration-log.disable value="true"/>
        <no-step-log value="true"/>
    </report>

    <gui_only>
        <gui-settings-file value="SUMO/gui-settings.cfg"/>
    </gui_only>

</configuration>
-->

<tripinfos xmlns:xsi="http://www.w3.org/2001/XMLSchema-instance" xsi:noNamespaceSchemaLocation="http://sumo.dlr.de/xsd/tripinfo_file.xsd">
    <tripinfo id="random0" depart="50.00" departLane="gneE1_0" departPos="5.10" departSpeed="0.00" departDelay="0.00" arrival="124.00" arrivalLane="gneE2_0" arrivalPos="491.30" arrivalSpeed="11.95" duration="74.00" routeLength="701.88" waitingTime="0.00" waitingCount="0" stopTime="0.00" timeLoss="15.19" rerouteNo="0" devices="tripinfo_random0" vType="type1" speedFactor="1.06" vaporized=""/>
    <tripinfo id="random1" depart="55.00" departLane="gneE1_0" departPos="5.10" departSpeed="0.00" departDelay="5.00" arrival="130.00" arrivalLane="gneE2_0" arrivalPos="491.30" arrivalSpeed="11.72" duration="75.00" routeLength="701.88" waitingTime="0.00" waitingCount="0" stopTime="0.00" timeLoss="16.25" rerouteNo="0" devices="tripinfo_random1" vType="type1" speedFactor="0.94" vaporized=""/>
    <tripinfo id="random2" depart="50.00" departLane="gneE3_0" departPos="5.10" departSpeed="0.00" departDelay="0.00" arrival="130.00" arrivalLane="gneE4_0" arrivalPos="431.40" arrivalSpeed="11.65" duration="80.00" routeLength="775.51" waitingTime="0.00" waitingCount="0" stopTime="0.00" timeLoss="15.26" rerouteNo="0" devices="tripinfo_random2" vType="type1" speedFactor="1.01" vaporized=""/>
    <tripinfo id="random4" depart="60.00" departLane="gneE1_0" departPos="5.10" departSpeed="0.00" departDelay="10.00" arrival="132.00" arrivalLane="gneE2_0" arrivalPos="491.30" arrivalSpeed="12.74" duration="72.00" routeLength="701.88" waitingTime="1.00" waitingCount="1" stopTime="0.00" timeLoss="22.01" rerouteNo="0" devices="tripinfo_random4" vType="type2" speedFactor="1.03" vaporized=""/>
    <tripinfo id="9" depart="69.00" departLane="gneE0_0" departPos="5.10" departSpeed="0.00" departDelay="0.50" arrival="136.00" arrivalLane="gneE0_0" arrivalPos="671.08" arrivalSpeed="11.93" duration="67.00" routeLength="665.98" waitingTime="0.00" waitingCount="0" stopTime="0.00" timeLoss="10.77" rerouteNo="0" devices="tripinfo_9" vType="type1" speedFactor="1.06" vaporized=""/>
    <tripinfo id="random5" depart="64.00" departLane="gneE1_0" departPos="5.10" departSpeed="0.00" departDelay="14.00" arrival="141.00" arrivalLane="gneE2_0" arrivalPos="491.30" arrivalSpeed="9.16" duration="77.00" routeLength="701.88" waitingTime="0.00" waitingCount="0" stopTime="0.00" timeLoss="15.25" rerouteNo="0" devices="tripinfo_random5" vType="type2" speedFactor="0.83" vaporized=""/>
    <tripinfo id="random13" depart="67.00" departLane="gneE1_0" departPos="5.10" departSpeed="0.00" departDelay="7.00" arrival="143.00" arrivalLane="gneE2_0" arrivalPos="491.30" arrivalSpeed="15.07" duration="76.00" routeLength="701.88" waitingTime="0.00" waitingCount="0" stopTime="0.00" timeLoss="30.10" rerouteNo="0" devices="tripinfo_random13" vType="type2" speedFactor="1.12" vaporized=""/>
    <tripinfo id="random18" depart="70.00" departLane="gneE1_0" departPos="5.10" departSpeed="0.00" departDelay="10.00" arrival="145.00" arrivalLane="gneE2_0" arrivalPos="491.30" arrivalSpeed="11.69" duration="75.00" routeLength="701.88" waitingTime="0.00" waitingCount="0" stopTime="0.00" timeLoss="15.94" rerouteNo="0" devices="tripinfo_random18" vType="type1" speedFactor="0.94" vaporized=""/>
    <tripinfo id="13" depart="79.00" departLane="gneE0_0" departPos="5.10" departSpeed="0.00" departDelay="10.50" arrival="145.00" arrivalLane="gneE0_0" arrivalPos="671.08" arrivalSpeed="11.84" duration="66.00" routeLength="665.98" waitingTime="0.00" waitingCount="0" stopTime="0.00" timeLoss="10.06" rerouteNo="0" devices="tripinfo_13" vType="type1" speedFactor="1.10" vaporized=""/>
    <tripinfo id="12" depart="74.00" departLane="gneE0_0" departPos="5.10" departSpeed="0.00" departDelay="5.00" arrival="149.00" arrivalLane="gneE0_0" arrivalPos="671.08" arrivalSpeed="10.34" duration="75.00" routeLength="665.98" waitingTime="0.00" waitingCount="0" stopTime="0.00" timeLoss="10.61" rerouteNo="0" devices="tripinfo_12" vType="type1" speedFactor="0.87" vaporized=""/>
    <tripinfo id="random21" depart="75.00" departLane="gneE1_0" departPos="5.10" departSpeed="0.00" departDelay="5.00" arrival="150.00" arrivalLane="gneE2_0" arrivalPos="491.30" arrivalSpeed="11.91" duration="75.00" routeLength="701.88" waitingTime="0.00" waitingCount="0" stopTime="0.00" timeLoss="16.04" rerouteNo="0" devices="tripinfo_random21" vType="type1" speedFactor="1.01" vaporized=""/>
    <tripinfo id="20" depart="84.00" departLane="gneE0_0" departPos="5.10" departSpeed="0.00" departDelay="15.00" arrival="151.00" arrivalLane="gneE0_1" arrivalPos="671.08" arrivalSpeed="11.96" duration="67.00" routeLength="665.98" waitingTime="0.00" waitingCount="0" stopTime="0.00" timeLoss="10.68" rerouteNo="0" devices="tripinfo_20" vType="type1" speedFactor="1.07" vaporized=""/>
    <tripinfo id="random11" depart="60.00" departLane="gneE0_0" departPos="8.10" departSpeed="0.00" departDelay="0.00" arrival="152.00" arrivalLane="gneE0_0" arrivalPos="671.08" arrivalSpeed="7.62" duration="92.00" routeLength="662.98" waitingTime="0.00" waitingCount="0" stopTime="0.00" timeLoss="8.30" rerouteNo="0" devices="tripinfo_random11" vType="type3" speedFactor="1.03" vaporized=""/>
    <tripinfo id="random20" depart="89.00" departLane="gneE0_0" departPos="5.10" departSpeed="0.00" departDelay="19.00" arrival="153.00" arrivalLane="gneE0_1" arrivalPos="671.08" arrivalSpeed="9.92" duration="64.00" routeLength="665.98" waitingTime="0.00" waitingCount="0" stopTime="0.00" timeLoss="8.84" rerouteNo="0" devices="tripinfo_random20" vType="type2" speedFactor="1.02" vaporized=""/>
    <tripinfo id="random22" depart="90.00" departLane="gneE0_0" departPos="5.10" departSpeed="0.00" departDelay="20.00" arrival="157.00" arrivalLane="gneE0_0" arrivalPos="671.08" arrivalSpeed="11.50" duration="67.00" routeLength="665.98" waitingTime="0.00" waitingCount="0" stopTime="0.00" timeLoss="9.90" rerouteNo="0" devices="tripinfo_random22" vType="type1" speedFactor="0.98" vaporized=""/>
    <tripinfo id="random24" depart="80.00" departLane="gneE1_0" departPos="5.10" departSpeed="0.00" departDelay="10.00" arrival="158.00" arrivalLane="gneE2_0" arrivalPos="491.30" arrivalSpeed="11.08" duration="78.00" routeLength="701.88" waitingTime="1.00" waitingCount="1" stopTime="0.00" timeLoss="16.63" rerouteNo="0" devices="tripinfo_random24" vType="type1" speedFactor="0.83" vaporized=""/>
    <tripinfo id="random3" depart="56.00" departLane="gneE3_0" departPos="8.10" departSpeed="0.00" departDelay="6.00" arrival="164.00" arrivalLane="gneE4_0" arrivalPos="431.40" arrivalSpeed="7.68" duration="108.00" routeLength="772.51" waitingTime="0.00" waitingCount="0" stopTime="0.00" timeLoss="10.81" rerouteNo="0" devices="tripinfo_random3" vType="type3" speedFactor="1.08" vaporized=""/>
    <tripinfo id="random23" depart="95.00" departLane="gneE0_0" departPos="5.10" departSpeed="0.00" departDelay="25.00" arrival="167.00" arrivalLane="gneE0_0" arrivalPos="671.08" arrivalSpeed="10.33" duration="72.00" routeLength="665.98" waitingTime="0.00" waitingCount="0" stopTime="0.00" timeLoss="8.95" rerouteNo="0" devices="tripinfo_random23" vType="type1" speedFactor="0.89" vaporized=""/>
    <tripinfo id="random6" depart="63.00" departLane="gneE3_0" departPos="8.10" departSpeed="0.00" departDelay="13.00" arrival="171.00" arrivalLane="gneE4_0" arrivalPos="431.40" arrivalSpeed="7.81" duration="108.00" routeLength="772.51" waitingTime="0.00" waitingCount="0" stopTime="0.00" timeLoss="10.52" rerouteNo="0" devices="tripinfo_random6" vType="type3" speedFactor="1.05" vaporized=""/>
    <tripinfo id="random26" depart="100.00" departLane="gneE0_0" departPos="5.10" departSpeed="0.00" departDelay="30.00" arrival="171.00" arrivalLane="gneE0_0" arrivalPos="671.08" arrivalSpeed="10.13" duration="71.00" routeLength="665.98" waitingTime="0.00" waitingCount="0" stopTime="0.00" timeLoss="9.96" rerouteNo="0" devices="tripinfo_random26" vType="type2" speedFactor="0.92" vaporized=""/>
    <tripinfo id="2" depart="102.00" departLane="gneE0_0" departPos="5.10" departSpeed="0.00" departDelay="30.50" arrival="171.00" arrivalLane="gneE0_1" arrivalPos="671.08" arrivalSpeed="11.31" duration="69.00" routeLength="665.98" waitingTime="0.00" waitingCount="0" stopTime="0.00" timeLoss="10.70" rerouteNo="0" devices="tripinfo_2" vType="type1" speedFactor="0.96" vaporized=""/>
    <tripinfo id="random32" depart="113.00" departLane="gneE0_0" departPos="5.10" departSpeed="0.00" departDelay="33.00" arrival="176.00" arrivalLane="gneE0_1" arrivalPos="671.08" arrivalSpeed="11.82" duration="63.00" routeLength="665.98" waitingTime="0.00" waitingCount="0" stopTime="0.00" timeLoss="6.90" rerouteNo="0" devices="tripinfo_random32" vType="type2" speedFactor="1.01" vaporized=""/>
    <tripinfo id="10" depart="107.00" departLane="gneE0_0" departPos="5.10" departSpeed="0.00" departDelay="31.00" arrival="176.00" arrivalLane="gneE0_0" arrivalPos="671.08" arrivalSpeed="11.47" duration="69.00" routeLength="665.98" waitingTime="1.00" waitingCount="1" stopTime="0.00" timeLoss="10.61" rerouteNo="0" devices="tripinfo_10" vType="type1" speedFactor="0.96" vaporized=""/>
    <tripinfo id="random7" depart="69.00" departLane="gneE3_0" departPos="8.10" departSpeed="0.00" departDelay="19.00" arrival="178.00" arrivalLane="gneE4_0" arrivalPos="431.40" arrivalSpeed="7.69" duration="109.00" routeLength="772.51" waitingTime="0.00" waitingCount="0" stopTime="0.00" timeLoss="11.76" rerouteNo="0" devices="tripinfo_random7" vType="type3" speedFactor="0.89" vaporized=""/>
    <tripinfo id="random8" depart="75.00" departLane="gneE3_0" departPos="8.10" departSpeed="0.00" departDelay="25.00" arrival="183.00" arrivalLane="gneE4_0" arrivalPos="431.40" arrivalSpeed="7.92" duration="108.00" routeLength="772.51" waitingTime="0.00" waitingCount="0" stopTime="0.00" timeLoss="11.33" rerouteNo="0" devices="tripinfo_random8" vType="type3" speedFactor="0.94" vaporized=""/>
    <tripinfo id="random27" depart="87.00" departLane="gneE1_0" departPos="8.10" departSpeed="0.00" departDelay="17.00" arrival="185.00" arrivalLane="gneE2_0" arrivalPos="491.30" arrivalSpeed="7.87" duration="98.00" routeLength="698.88" waitingTime="0.00" waitingCount="0" stopTime="0.00" timeLoss="9.85" rerouteNo="0" devices="tripinfo_random27" vType="type3" speedFactor="0.95" vaporized=""/>
    <tripinfo id="random34" depart="119.00" departLane="gneE0_0" departPos="5.10" departSpeed="0.00" departDelay="39.00" arrival="185.00" arrivalLane="gneE0_0" arrivalPos="671.08" arrivalSpeed="11.93" duration="66.00" routeLength="665.98" waitingTime="0.00" waitingCount="0" stopTime="0.00" timeLoss="9.62" rerouteNo="0" devices="tripinfo_random34" vType="type1" speedFactor="0.99" vaporized=""/>
    <tripinfo id="18" depart="92.00" departLane="gneE1_0" departPos="5.10" departSpeed="0.00" departDelay="18.50" arrival="187.00" arrivalLane="gneE2_0" arrivalPos="491.30" arrivalSpeed="9.50" duration="95.00" routeLength="701.88" waitingTime="0.00" waitingCount="0" stopTime="0.00" timeLoss="36.31" rerouteNo="0" devices="tripinfo_18" vType="type1" speedFactor="1.00" vaporized=""/>
    <tripinfo id="random30" depart="97.00" departLane="gneE1_0" departPos="5.10" departSpeed="0.00" departDelay="17.00" arrival="189.00" arrivalLane="gneE2_0" arrivalPos="491.30" arrivalSpeed="14.34" duration="92.00" routeLength="701.88" waitingTime="1.00" waitingCount="1" stopTime="0.00" timeLoss="48.71" rerouteNo="0" devices="tripinfo_random30" vType="type2" speedFactor="1.18" vaporized=""/>
    <tripinfo id="random9" depart="81.00" departLane="gneE3_0" departPos="8.10" departSpeed="0.00" departDelay="31.00" arrival="190.00" arrivalLane="gneE4_0" arrivalPos="431.40" arrivalSpeed="7.70" duration="109.00" routeLength="772.51" waitingTime="0.00" waitingCount="0" stopTime="0.00" timeLoss="11.60" rerouteNo="0" devices="tripinfo_random9" vType="type3" speedFactor="0.86" vaporized=""/>
    <tripinfo id="random35" depart="101.00" departLane="gneE1_0" departPos="5.10" departSpeed="0.00" departDelay="21.00" arrival="191.00" arrivalLane="gneE2_0" arrivalPos="491.30" arrivalSpeed="9.23" duration="90.00" routeLength="701.88" waitingTime="0.00" waitingCount="0" stopTime="0.00" timeLoss="31.52" rerouteNo="0" devices="tripinfo_random35" vType="type1" speedFactor="1.02" vaporized=""/>
    <tripinfo id="random37" depart="124.00" departLane="gneE0_0" departPos="5.10" departSpeed="0.00" departDelay="44.00" arrival="191.00" arrivalLane="gneE0_0" arrivalPos="671.08" arrivalSpeed="11.81" duration="67.00" routeLength="665.98" waitingTime="0.00" waitingCount="0" stopTime="0.00" timeLoss="10.74" rerouteNo="0" devices="tripinfo_random37" vType="type1" speedFactor="1.18" vaporized=""/>
    <tripinfo id="3" depart="106.00" departLane="gneE1_0" departPos="5.10" departSpeed="0.00" departDelay="18.50" arrival="193.00" arrivalLane="gneE2_0" arrivalPos="491.30" arrivalSpeed="10.23" duration="87.00" routeLength="701.88" waitingTime="0.00" waitingCount="0" stopTime="0.00" timeLoss="28.30" rerouteNo="0" devices="tripinfo_3" vType="type1" speedFactor="0.97" vaporized=""/>
    <tripinfo id="random10" depart="87.00" departLane="gneE3_0" departPos="8.10" departSpeed="0.00" departDelay="27.00" arrival="194.00" arrivalLane="gneE4_0" arrivalPos="431.40" arrivalSpeed="7.61" duration="107.00" routeLength="772.51" waitingTime="0.00" waitingCount="0" stopTime="0.00" timeLoss="10.08" rerouteNo="0" devices="tripinfo_random10" vType="type3" speedFactor="1.09" vaporized=""/>
    <tripinfo id="random38" depart="129.00" departLane="gneE0_0" departPos="5.10" departSpeed="0.00" departDelay="49.00" arrival="195.00" arrivalLane="gneE0_0" arrivalPos="671.08" arrivalSpeed="11.69" duration="66.00" routeLength="665.98" waitingTime="0.00" waitingCount="0" stopTime="0.00" timeLoss="10.30" rerouteNo="0" devices="tripinfo_random38" vType="type1" speedFactor="1.10" vaporized=""/>
    <tripinfo id="random40" depart="111.00" departLane="gneE1_0" departPos="5.10" departSpeed="0.00" departDelay="21.00" arrival="195.00" arrivalLane="gneE2_0" arrivalPos="491.30" arrivalSpeed="13.12" duration="84.00" routeLength="701.88" waitingTime="0.00" waitingCount="0" stopTime="0.00" timeLoss="34.41" rerouteNo="0" devices="tripinfo_random40" vType="type2" speedFactor="1.03" vaporized=""/>
    <tripinfo id="random12" depart="92.00" departLane="gneE3_0" departPos="5.10" departSpeed="0.00" departDelay="32.00" arrival="196.00" arrivalLane="gneE4_0" arrivalPos="431.40" arrivalSpeed="13.28" duration="104.00" routeLength="775.51" waitingTime="0.00" waitingCount="0" stopTime="0.00" timeLoss="54.17" rerouteNo="0" devices="tripinfo_random12" vType="type2" speedFactor="1.05" vaporized=""/>
    <tripinfo id="random45" depart="114.00" departLane="gneE1_0" departPos="5.10" departSpeed="0.00" departDelay="24.00" arrival="197.00" arrivalLane="gneE2_0" arrivalPos="491.30" arrivalSpeed="10.54" duration="83.00" routeLength="701.88" waitingTime="0.00" waitingCount="0" stopTime="0.00" timeLoss="24.43" rerouteNo="0" devices="tripinfo_random45" vType="type1" speedFactor="1.09" vaporized=""/>
    <tripinfo id="random14" depart="95.00" departLane="gneE3_0" departPos="5.10" departSpeed="0.00" departDelay="35.00" arrival="199.00" arrivalLane="gneE4_0" arrivalPos="431.40" arrivalSpeed="9.16" duration="104.00" routeLength="775.51" waitingTime="0.00" waitingCount="0" stopTime="0.00" timeLoss="38.91" rerouteNo="0" devices="tripinfo_random14" vType="type1" speedFactor="0.99" vaporized=""/>
    <tripinfo id="random15" depart="100.00" departLane="gneE3_0" departPos="5.10" departSpeed="0.00" departDelay="40.00" arrival="201.00" arrivalLane="gneE4_0" arrivalPos="431.40" arrivalSpeed="12.35" duration="101.00" routeLength="775.51" waitingTime="0.00" waitingCount="0" stopTime="0.00" timeLoss="44.54" rerouteNo="0" devices="tripinfo_random15" vType="type2" speedFactor="0.93" vaporized=""/>
    <tripinfo id="11" depart="134.00" departLane="gneE0_0" departPos="5.10" departSpeed="0.00" departDelay="53.50" arrival="204.00" arrivalLane="gneE0_1" arrivalPos="671.08" arrivalSpeed="10.95" duration="70.00" routeLength="665.98" waitingTime="0.00" waitingCount="0" stopTime="0.00" timeLoss="9.95" rerouteNo="0" devices="tripinfo_11" vType="type1" speedFactor="0.93" vaporized=""/>
    <tripinfo id="random33" depart="114.00" departLane="gneE0_0" departPos="8.10" departSpeed="0.00" departDelay="34.00" arrival="205.00" arrivalLane="gneE0_0" arrivalPos="671.08" arrivalSpeed="7.90" duration="91.00" routeLength="662.98" waitingTime="0.00" waitingCount="0" stopTime="0.00" timeLoss="7.88" rerouteNo="0" devices="tripinfo_random33" vType="type3" speedFactor="1.17" vaporized=""/>
    <tripinfo id="17" depart="139.00" departLane="gneE0_0" departPos="5.10" departSpeed="0.00" departDelay="53.50" arrival="206.00" arrivalLane="gneE0_1" arrivalPos="671.08" arrivalSpeed="11.82" duration="67.00" routeLength="665.98" waitingTime="0.00" waitingCount="0" stopTime="0.00" timeLoss="11.12" rerouteNo="0" devices="tripinfo_17" vType="type1" speedFactor="1.18" vaporized=""/>
    <tripinfo id="1" depart="144.00" departLane="gneE0_0" departPos="5.10" departSpeed="0.00" departDelay="57.00" arrival="210.00" arrivalLane="gneE0_0" arrivalPos="671.08" arrivalSpeed="11.89" duration="66.00" routeLength="665.98" waitingTime="0.00" waitingCount="0" stopTime="0.00" timeLoss="10.39" rerouteNo="0" devices="tripinfo_1" vType="type1" speedFactor="1.07" vaporized=""/>
    <tripinfo id="random16" depart="104.00" departLane="gneE3_0" departPos="8.10" departSpeed="0.00" departDelay="44.00" arrival="213.00" arrivalLane="gneE4_0" arrivalPos="431.40" arrivalSpeed="7.99" duration="109.00" routeLength="772.51" waitingTime="0.00" waitingCount="0" stopTime="0.00" timeLoss="11.83" rerouteNo="0" devices="tripinfo_random16" vType="type3" speedFactor="0.88" vaporized=""/>
    <tripinfo id="random42" depart="149.00" departLane="gneE0_0" departPos="5.10" departSpeed="0.00" departDelay="59.00" arrival="215.00" arrivalLane="gneE0_0" arrivalPos="671.08" arrivalSpeed="11.73" duration="66.00" routeLength="665.98" waitingTime="0.00" waitingCount="0" stopTime="0.00" timeLoss="10.48" rerouteNo="0" devices="tripinfo_random42" vType="type1" speedFactor="1.09" vaporized=""/>
    <tripinfo id="random52" depart="120.00" departLane="gneE1_0" departPos="8.10" departSpeed="0.00" departDelay="20.00" arrival="217.00" arrivalLane="gneE2_0" arrivalPos="491.30" arrivalSpeed="7.98" duration="97.00" routeLength="698.88" waitingTime="0.00" waitingCount="0" stopTime="0.00" timeLoss="9.23" rerouteNo="0" devices="tripinfo_random52" vType="type3" speedFactor="1.02" vaporized=""/>
    <tripinfo id="random17" depart="110.00" departLane="gneE3_0" departPos="8.10" departSpeed="0.00" departDelay="50.00" arrival="219.00" arrivalLane="gneE4_0" arrivalPos="431.40" arrivalSpeed="7.98" duration="109.00" routeLength="772.51" waitingTime="0.00" waitingCount="0" stopTime="0.00" timeLoss="11.29" rerouteNo="0" devices="tripinfo_random17" vType="type3" speedFactor="0.94" vaporized=""/>
    <tripinfo id="random58" depart="125.00" departLane="gneE1_0" departPos="5.10" departSpeed="0.00" departDelay="25.00" arrival="219.00" arrivalLane="gneE2_0" arrivalPos="491.30" arrivalSpeed="13.37" duration="94.00" routeLength="701.88" waitingTime="0.00" waitingCount="0" stopTime="0.00" timeLoss="44.13" rerouteNo="0" devices="tripinfo_random58" vType="type2" speedFactor="1.02" vaporized=""/>
    <tripinfo id="random19" depart="116.00" departLane="gneE3_0" departPos="5.10" departSpeed="0.00" departDelay="56.00" arrival="221.00" arrivalLane="gneE4_0" arrivalPos="431.40" arrivalSpeed="8.92" duration="105.00" routeLength="775.51" waitingTime="0.00" waitingCount="0" stopTime="0.00" timeLoss="40.08" rerouteNo="0" devices="tripinfo_random19" vType="type1" speedFactor="1.16" vaporized=""/>
    <tripinfo id="random62" depart="128.00" departLane="gneE1_0" departPos="5.10" departSpeed="0.00" departDelay="18.00" arrival="221.00" arrivalLane="gneE2_0" arrivalPos="491.30" arrivalSpeed="9.49" duration="93.00" routeLength="701.88" waitingTime="0.00" waitingCount="0" stopTime="0.00" timeLoss="33.76" rerouteNo="0" devices="tripinfo_random62" vType="type1" speedFactor="1.02" vaporized=""/>
    <tripinfo id="19" depart="121.00" departLane="gneE3_0" departPos="5.10" departSpeed="0.00" departDelay="54.50" arrival="223.00" arrivalLane="gneE4_0" arrivalPos="431.40" arrivalSpeed="9.74" duration="102.00" routeLength="775.51" waitingTime="0.00" waitingCount="0" stopTime="0.00" timeLoss="36.90" rerouteNo="0" devices="tripinfo_19" vType="type1" speedFactor="0.99" vaporized=""/>
    <tripinfo id="random47" depart="154.00" departLane="gneE0_0" departPos="5.10" departSpeed="0.00" departDelay="64.00" arrival="225.00" arrivalLane="gneE0_0" arrivalPos="671.08" arrivalSpeed="9.00" duration="71.00" routeLength="665.98" waitingTime="0.00" waitingCount="0" stopTime="0.00" timeLoss="8.63" rerouteNo="0" devices="tripinfo_random47" vType="type2" speedFactor="0.90" vaporized=""/>
    <tripinfo id="8" depart="165.00" departLane="gneE0_0" departPos="5.10" departSpeed="0.00" departDelay="71.50" arrival="232.00" arrivalLane="gneE0_0" arrivalPos="671.08" arrivalSpeed="11.84" duration="67.00" routeLength="665.98" waitingTime="0.00" waitingCount="0" stopTime="0.00" timeLoss="11.07" rerouteNo="0" devices="tripinfo_8" vType="type1" speedFactor="1.03" vaporized=""/>
    <tripinfo id="random63" depart="135.00" departLane="gneE1_0" departPos="8.10" departSpeed="0.00" departDelay="25.00" arrival="233.00" arrivalLane="gneE2_0" arrivalPos="491.30" arrivalSpeed="7.79" duration="98.00" routeLength="698.88" waitingTime="0.00" waitingCount="0" stopTime="0.00" timeLoss="9.88" rerouteNo="0" devices="tripinfo_random63" vType="type3" speedFactor="0.99" vaporized=""/>
    <tripinfo id="random25" depart="127.00" departLane="gneE3_0" departPos="8.10" departSpeed="0.00" departDelay="57.00" arrival="235.00" arrivalLane="gneE4_0" arrivalPos="431.40" arrivalSpeed="7.90" duration="108.00" routeLength="772.51" waitingTime="0.00" waitingCount="0" stopTime="0.00" timeLoss="11.26" rerouteNo="0" devices="tripinfo_random25" vType="type3" speedFactor="0.87" vaporized=""/>
    <tripinfo id="random49" depart="160.00" departLane="gneE0_0" departPos="5.10" departSpeed="0.00" departDelay="70.00" arrival="235.00" arrivalLane="gneE0_0" arrivalPos="671.08" arrivalSpeed="9.83" duration="75.00" routeLength="665.98" waitingTime="0.00" waitingCount="0" stopTime="0.00" timeLoss="9.52" rerouteNo="0" devices="tripinfo_random49" vType="type1" speedFactor="0.85" vaporized=""/>
    <tripinfo id="random64" depart="140.00" departLane="gneE1_0" departPos="5.10" departSpeed="0.00" departDelay="30.00" arrival="235.00" arrivalLane="gneE2_0" arrivalPos="491.30" arrivalSpeed="8.45" duration="95.00" routeLength="701.88" waitingTime="0.00" waitingCount="0" stopTime="0.00" timeLoss="36.50" rerouteNo="0" devices="tripinfo_random64" vType="type1" speedFactor="0.94" vaporized=""/>
    <tripinfo id="random28" depart="132.00" departLane="gneE3_0" departPos="5.10" departSpeed="0.00" departDelay="62.00" arrival="237.00" arrivalLane="gneE4_0" arrivalPos="431.40" arrivalSpeed="9.39" duration="105.00" routeLength="775.51" waitingTime="0.00" waitingCount="0" stopTime="0.00" timeLoss="39.72" rerouteNo="0" devices="tripinfo_random28" vType="type1" speedFactor="1.13" vaporized=""/>
    <tripinfo id="random65" depart="145.00" departLane="gneE1_0" departPos="5.10" departSpeed="0.00" departDelay="35.00" arrival="237.00" arrivalLane="gneE2_0" arrivalPos="491.30" arrivalSpeed="11.06" duration="92.00" routeLength="701.88" waitingTime="0.00" waitingCount="0" stopTime="0.00" timeLoss="34.45" rerouteNo="0" devices="tripinfo_random65" vType="type2" speedFactor="0.88" vaporized=""/>
    <tripinfo id="random66" depart="149.00" departLane="gneE1_0" departPos="5.10" departSpeed="0.00" departDelay="39.00" arrival="239.00" arrivalLane="gneE2_0" arrivalPos="491.30" arrivalSpeed="12.19" duration="90.00" routeLength="701.88" waitingTime="0.00" waitingCount="0" stopTime="0.00" timeLoss="33.95" rerouteNo="0" devices="tripinfo_random66" vType="type2" speedFactor="0.91" vaporized=""/>
    <tripinfo id="random67" depart="151.00" departLane="gneE1_0" departPos="5.10" departSpeed="0.00" departDelay="41.00" arrival="242.00" arrivalLane="gneE2_0" arrivalPos="491.30" arrivalSpeed="9.44" duration="91.00" routeLength="701.88" waitingTime="0.00" waitingCount="0" stopTime="0.00" timeLoss="31.57" rerouteNo="0" devices="tripinfo_random67" vType="type1" speedFactor="0.91" vaporized=""/>
    <tripinfo id="random70" depart="176.00" departLane="gneE0_0" departPos="5.10" departSpeed="0.00" departDelay="56.00" arrival="245.00" arrivalLane="gneE0_0" arrivalPos="671.08" arrivalSpeed="11.81" duration="69.00" routeLength="665.98" waitingTime="0.00" waitingCount="0" stopTime="0.00" timeLoss="12.86" rerouteNo="0" devices="tripinfo_random70" vType="type1" speedFactor="1.02" vaporized=""/>
    <tripinfo id="random29" depart="138.00" departLane="gneE3_0" departPos="8.10" departSpeed="0.00" departDelay="68.00" arrival="246.00" arrivalLane="gneE4_0" arrivalPos="431.40" arrivalSpeed="7.87" duration="108.00" routeLength="772.51" waitingTime="0.00" waitingCount="0" stopTime="0.00" timeLoss="10.81" rerouteNo="0" devices="tripinfo_random29" vType="type3" speedFactor="0.93" vaporized=""/>
    <tripinfo id="random48" depart="155.00" departLane="gneE0_0" departPos="8.10" departSpeed="0.00" departDelay="65.00" arrival="246.00" arrivalLane="gneE0_0" arrivalPos="671.08" arrivalSpeed="7.66" duration="91.00" routeLength="662.98" waitingTime="0.00" waitingCount="0" stopTime="0.00" timeLoss="7.94" rerouteNo="0" devices="tripinfo_random48" vType="type3" speedFactor="0.88" vaporized=""/>
    <tripinfo id="random71" depart="181.00" departLane="gneE0_0" departPos="5.10" departSpeed="0.00" departDelay="61.00" arrival="247.00" arrivalLane="gneE0_1" arrivalPos="671.08" arrivalSpeed="11.08" duration="66.00" routeLength="665.98" waitingTime="0.00" waitingCount="0" stopTime="0.00" timeLoss="8.31" rerouteNo="0" devices="tripinfo_random71" vType="type2" speedFactor="0.97" vaporized=""/>
    <tripinfo id="random31" depart="143.00" departLane="gneE3_0" departPos="5.10" departSpeed="0.00" departDelay="63.00" arrival="248.00" arrivalLane="gneE4_0" arrivalPos="431.40" arrivalSpeed="15.09" duration="105.00" routeLength="775.51" waitingTime="0.00" waitingCount="0" stopTime="0.00" timeLoss="59.54" rerouteNo="0" devices="tripinfo_random31" vType="type2" speedFactor="1.15" vaporized=""/>
    <tripinfo id="random36" depart="146.00" departLane="gneE3_0" departPos="5.10" departSpeed="0.00" departDelay="66.00" arrival="250.00" arrivalLane="gneE4_0" arrivalPos="431.40" arrivalSpeed="9.26" duration="104.00" routeLength="775.51" waitingTime="0.00" waitingCount="0" stopTime="0.00" timeLoss="39.19" rerouteNo="0" devices="tripinfo_random36" vType="type1" speedFactor="0.97" vaporized=""/>
    <tripinfo id="random75" depart="187.00" departLane="gneE0_0" departPos="5.10" departSpeed="0.00" departDelay="67.00" arrival="251.00" arrivalLane="gneE0_0" arrivalPos="671.08" arrivalSpeed="10.92" duration="64.00" routeLength="665.98" waitingTime="0.00" waitingCount="0" stopTime="0.00" timeLoss="7.62" rerouteNo="0" devices="tripinfo_random75" vType="type2" speedFactor="0.98" vaporized=""/>
    <tripinfo id="random78" depart="188.00" departLane="gneE0_0" departPos="5.10" departSpeed="0.00" departDelay="68.00" arrival="253.00" arrivalLane="gneE0_1" arrivalPos="671.08" arrivalSpeed="11.33" duration="65.00" routeLength="665.98" waitingTime="0.00" waitingCount="0" stopTime="0.00" timeLoss="9.43" rerouteNo="0" devices="tripinfo_random78" vType="type2" speedFactor="1.01" vaporized=""/>
    <tripinfo id="random69" depart="157.00" departLane="gneE1_0" departPos="8.10" departSpeed="0.00" departDelay="47.00" arrival="255.00" arrivalLane="gneE2_0" arrivalPos="491.30" arrivalSpeed="7.71" duration="98.00" routeLength="698.88" waitingTime="0.00" waitingCount="0" stopTime="0.00" timeLoss="10.13" rerouteNo="0" devices="tripinfo_random69" vType="type3" speedFactor="1.02" vaporized=""/>
    <tripinfo id="random79" depart="190.00" departLane="gneE0_0" departPos="5.10" departSpeed="0.00" departDelay="70.00" arrival="255.00" arrivalLane="gneE0_1" arrivalPos="671.08" arrivalSpeed="10.81" duration="65.00" routeLength="665.98" waitingTime="0.00" waitingCount="0" stopTime="0.00" timeLoss="13.50" rerouteNo="0" devices="tripinfo_random79" vType="type2" speedFactor="1.09" vaporized=""/>
    <tripinfo id="random73" depart="182.00" departLane="gneE0_0" departPos="5.10" departSpeed="0.00" departDelay="62.00" arrival="257.00" arrivalLane="gneE0_0" arrivalPos="671.08" arrivalSpeed="11.75" duration="75.00" routeLength="665.98" waitingTime="0.00" waitingCount="0" stopTime="0.00" timeLoss="18.67" rerouteNo="0" devices="tripinfo_random73" vType="type1" speedFactor="1.06" vaporized=""/>