<?xml version="1.0" encoding="UTF-8"?>

<!-- generated on 2021-06-21 20:48:45 by Eclipse SUMO GUI Version 1.9.2
<configuration xmlns:xsi="http://www.w3.org/2001/XMLSchema-instance" xsi:noNamespaceSchemaLocation="http://sumo.dlr.de/xsd/sumoConfiguration.xsd">

    <input>
        <net-file value="SUMO/new.net.xml"/>
        <route-files value="SUMO/routes_clear.xml"/>
    </input>

    <output>
        <tripinfo-output value="SUMO/tripinfo.xml"/>
    </output>

    <time>
        <begin value="0"/>
        <end value="3600"/>
    </time>

    <processing>
        <time-to-teleport value="-1"/>
    </processing>

    <report>
        <xml-validation value="never"/>
        <xml-validation.routes value="never"/>
        <duration-log.disable value="true"/>
        <no-step-log value="true"/>
    </report>

    <gui_only>
        <gui-settings-file value="SUMO/gui-settings.cfg"/>
        <start value="true"/>
    </gui_only>

</configuration>
-->

<tripinfos xmlns:xsi="http://www.w3.org/2001/XMLSchema-instance" xsi:noNamespaceSchemaLocation="http://sumo.dlr.de/xsd/tripinfo_file.xsd">
    <tripinfo id="random0" depart="50.00" departLane="gneE3_0" departPos="5.10" departSpeed="0.00" departDelay="0.00" arrival="107.00" arrivalLane="gneE4_0" arrivalPos="431.40" arrivalSpeed="14.05" duration="57.00" routeLength="775.51" waitingTime="0.00" waitingCount="0" stopTime="0.00" timeLoss="7.86" rerouteNo="0" devices="tripinfo_random0" vType="type2" speedFactor="1.06" vaporized=""/>
    <tripinfo id="random2" depart="50.00" departLane="gneE1_0" departPos="5.10" departSpeed="0.00" departDelay="0.00" arrival="108.00" arrivalLane="gneE2_0" arrivalPos="491.30" arrivalSpeed="12.56" duration="58.00" routeLength="701.88" waitingTime="0.00" waitingCount="0" stopTime="0.00" timeLoss="7.92" rerouteNo="0" devices="tripinfo_random2" vType="type2" speedFactor="1.01" vaporized=""/>
    <tripinfo id="random1" depart="50.00" departLane="gneE0_0" departPos="5.10" departSpeed="0.00" departDelay="0.00" arrival="120.00" arrivalLane="gneE0_0" arrivalPos="671.08" arrivalSpeed="11.17" duration="70.00" routeLength="665.98" waitingTime="0.00" waitingCount="0" stopTime="0.00" timeLoss="10.49" rerouteNo="0" devices="tripinfo_random1" vType="type1" speedFactor="0.94" vaporized=""/>
    <tripinfo id="random6" depart="60.00" departLane="gneE0_0" departPos="5.10" departSpeed="0.00" departDelay="10.00" arrival="121.00" arrivalLane="gneE0_1" arrivalPos="671.08" arrivalSpeed="10.48" duration="61.00" routeLength="665.98" waitingTime="0.00" waitingCount="0" stopTime="0.00" timeLoss="7.27" rerouteNo="0" devices="tripinfo_random6" vType="type2" speedFactor="1.05" vaporized=""/>
    <tripinfo id="random7" depart="52.00" departLane="gneE1_0" departPos="5.10" departSpeed="0.00" departDelay="2.00" arrival="127.00" arrivalLane="gneE2_0" arrivalPos="491.30" arrivalSpeed="11.95" duration="75.00" routeLength="701.88" waitingTime="0.00" waitingCount="0" stopTime="0.00" timeLoss="16.12" rerouteNo="0" devices="tripinfo_random7" vType="type1" speedFactor="0.89" vaporized=""/>
    <tripinfo id="random11" depart="66.00" departLane="gneE0_0" departPos="5.10" departSpeed="0.00" departDelay="11.00" arrival="129.00" arrivalLane="gneE0_0" arrivalPos="671.08" arrivalSpeed="10.61" duration="63.00" routeLength="665.98" waitingTime="0.00" waitingCount="0" stopTime="0.00" timeLoss="8.20" rerouteNo="0" devices="tripinfo_random11" vType="type2" speedFactor="1.03" vaporized=""/>
    <tripinfo id="random19" depart="67.00" departLane="gneE0_0" departPos="5.10" departSpeed="0.00" departDelay="12.00" arrival="130.00" arrivalLane="gneE0_1" arrivalPos="671.08" arrivalSpeed="11.45" duration="63.00" routeLength="665.98" waitingTime="0.00" waitingCount="0" stopTime="0.00" timeLoss="14.28" rerouteNo="0" devices="tripinfo_random19" vType="type2" speedFactor="1.16" vaporized=""/>
    <tripinfo id="random5" depart="55.00" departLane="gneE0_0" departPos="5.10" departSpeed="0.00" departDelay="5.00" arrival="131.00" arrivalLane="gneE0_0" arrivalPos="671.08" arrivalSpeed="9.84" duration="76.00" routeLength="665.98" waitingTime="0.00" waitingCount="0" stopTime="0.00" timeLoss="9.01" rerouteNo="0" devices="tripinfo_random5" vType="type1" speedFactor="0.83" vaporized=""/>
    <tripinfo id="random8" depart="57.00" departLane="gneE1_0" departPos="5.10" departSpeed="0.00" departDelay="7.00" arrival="132.00" arrivalLane="gneE2_0" arrivalPos="491.30" arrivalSpeed="11.78" duration="75.00" routeLength="701.88" waitingTime="0.00" waitingCount="0" stopTime="0.00" timeLoss="15.87" rerouteNo="0" devices="tripinfo_random8" vType="type1" speedFactor="0.94" vaporized=""/>
    <tripinfo id="random10" depart="61.00" departLane="gneE0_0" departPos="5.10" departSpeed="0.00" departDelay="6.00" arrival="132.00" arrivalLane="gneE0_1" arrivalPos="671.08" arrivalSpeed="11.72" duration="71.00" routeLength="665.98" waitingTime="0.00" waitingCount="0" stopTime="0.00" timeLoss="15.05" rerouteNo="0" devices="tripinfo_random10" vType="type1" speedFactor="1.09" vaporized=""/>
    <tripinfo id="20" depart="69.00" departLane="gneE0_0" departPos="5.10" departSpeed="0.00" departDelay="12.35" arrival="135.00" arrivalLane="gneE0_0" arrivalPos="671.08" arrivalSpeed="11.79" duration="66.00" routeLength="665.98" waitingTime="0.00" waitingCount="0" stopTime="0.00" timeLoss="9.99" rerouteNo="0" devices="tripinfo_20" vType="type1" speedFactor="1.05" vaporized=""/>
    <tripinfo id="random26" depart="80.00" departLane="gneE0_0" departPos="5.10" departSpeed="0.00" departDelay="20.00" arrival="149.00" arrivalLane="gneE0_0" arrivalPos="671.08" arrivalSpeed="9.21" duration="69.00" routeLength="665.98" waitingTime="0.00" waitingCount="0" stopTime="0.00" timeLoss="8.06" rerouteNo="0" devices="tripinfo_random26" vType="type2" speedFactor="0.92" vaporized=""/>
    <tripinfo id="random38" depart="87.00" departLane="gneE0_0" departPos="5.10" departSpeed="0.00" departDelay="22.00" arrival="153.00" arrivalLane="gneE0_0" arrivalPos="671.08" arrivalSpeed="11.63" duration="66.00" routeLength="665.98" waitingTime="0.00" waitingCount="0" stopTime="0.00" timeLoss="9.92" rerouteNo="0" devices="tripinfo_random38" vType="type1" speedFactor="1.10" vaporized=""/>
    <tripinfo id="10" depart="92.00" departLane="gneE0_0" departPos="5.10" departSpeed="0.00" departDelay="24.25" arrival="159.00" arrivalLane="gneE0_0" arrivalPos="671.08" arrivalSpeed="11.78" duration="67.00" routeLength="665.98" waitingTime="0.00" waitingCount="0" stopTime="0.00" timeLoss="10.94" rerouteNo="0" devices="tripinfo_10" vType="type1" speedFactor="1.12" vaporized=""/>
    <tripinfo id="random3" depart="52.00" departLane="gneE3_0" departPos="8.10" departSpeed="0.00" departDelay="2.00" arrival="160.00" arrivalLane="gneE4_0" arrivalPos="431.40" arrivalSpeed="7.98" duration="108.00" routeLength="772.51" waitingTime="0.00" waitingCount="0" stopTime="0.00" timeLoss="10.99" rerouteNo="0" devices="tripinfo_random3" vType="type3" speedFactor="1.08" vaporized=""/>
    <tripinfo id="random9" depart="63.00" departLane="gneE1_0" departPos="8.10" departSpeed="0.00" departDelay="13.00" arrival="162.00" arrivalLane="gneE2_0" arrivalPos="491.30" arrivalSpeed="7.88" duration="99.00" routeLength="698.88" waitingTime="0.00" waitingCount="0" stopTime="0.00" timeLoss="11.10" rerouteNo="0" devices="tripinfo_random9" vType="type3" speedFactor="0.86" vaporized=""/>
    <tripinfo id="11" depart="97.00" departLane="gneE0_0" departPos="5.10" departSpeed="0.00" departDelay="29.78" arrival="164.00" arrivalLane="gneE0_1" arrivalPos="671.08" arrivalSpeed="11.72" duration="67.00" routeLength="665.98" waitingTime="0.00" waitingCount="0" stopTime="0.00" timeLoss="10.75" rerouteNo="0" devices="tripinfo_11" vType="type1" speedFactor="1.01" vaporized=""/>
    <tripinfo id="random4" depart="58.00" departLane="gneE3_0" departPos="8.10" departSpeed="0.00" departDelay="8.00" arrival="166.00" arrivalLane="gneE4_0" arrivalPos="431.40" arrivalSpeed="7.76" duration="108.00" routeLength="772.51" waitingTime="0.00" waitingCount="0" stopTime="0.00" timeLoss="10.74" rerouteNo="0" devices="tripinfo_random4" vType="type3" speedFactor="1.03" vaporized=""/>
    <tripinfo id="random25" depart="75.00" departLane="gneE0_0" departPos="8.10" departSpeed="0.00" departDelay="15.00" arrival="166.00" arrivalLane="gneE0_0" arrivalPos="671.08" arrivalSpeed="7.89" duration="91.00" routeLength="662.98" waitingTime="0.00" waitingCount="0" stopTime="0.00" timeLoss="7.44" rerouteNo="0" devices="tripinfo_random25" vType="type3" speedFactor="0.87" vaporized=""/>
    <tripinfo id="random12" depart="69.00" departLane="gneE1_0" departPos="8.10" departSpeed="0.00" departDelay="14.00" arrival="167.00" arrivalLane="gneE2_0" arrivalPos="491.30" arrivalSpeed="7.64" duration="98.00" routeLength="698.88" waitingTime="0.00" waitingCount="0" stopTime="0.00" timeLoss="10.21" rerouteNo="0" devices="tripinfo_random12" vType="type3" speedFactor="1.05" vaporized=""/>
    <tripinfo id="random13" depart="75.00" departLane="gneE1_0" departPos="8.10" departSpeed="0.00" departDelay="20.00" arrival="173.00" arrivalLane="gneE2_0" arrivalPos="491.30" arrivalSpeed="7.82" duration="98.00" routeLength="698.88" waitingTime="0.00" waitingCount="0" stopTime="0.00" timeLoss="10.14" rerouteNo="0" devices="tripinfo_random13" vType="type3" speedFactor="1.12" vaporized=""/>
    <tripinfo id="random18" depart="64.00" departLane="gneE3_0" departPos="8.10" departSpeed="0.00" departDelay="9.00" arrival="173.00" arrivalLane="gneE4_0" arrivalPos="431.40" arrivalSpeed="7.93" duration="109.00" routeLength="772.51" waitingTime="0.00" waitingCount="0" stopTime="0.00" timeLoss="11.51" rerouteNo="0" devices="tripinfo_random18" vType="type3" speedFactor="0.94" vaporized=""/>
    <tripinfo id="random30" depart="82.00" departLane="gneE0_0" departPos="8.10" departSpeed="0.00" departDelay="17.00" arrival="173.00" arrivalLane="gneE0_0" arrivalPos="671.08" arrivalSpeed="7.74" duration="91.00" routeLength="662.98" waitingTime="0.00" waitingCount="0" stopTime="0.00" timeLoss="7.83" rerouteNo="0" devices="tripinfo_random30" vType="type3" speedFactor="1.18" vaporized=""/>
    <tripinfo id="random14" depart="80.00" departLane="gneE1_0" departPos="5.10" departSpeed="0.00" departDelay="25.00" arrival="175.00" arrivalLane="gneE2_0" arrivalPos="491.30" arrivalSpeed="13.00" duration="95.00" routeLength="701.88" waitingTime="0.00" waitingCount="0" stopTime="0.00" timeLoss="43.03" rerouteNo="0" devices="tripinfo_random14" vType="type2" speedFactor="0.99" vaporized=""/>
    <tripinfo id="random28" depart="69.00" departLane="gneE3_0" departPos="5.10" departSpeed="0.00" departDelay="9.00" arrival="175.00" arrivalLane="gneE4_0" arrivalPos="431.40" arrivalSpeed="14.93" duration="106.00" routeLength="775.51" waitingTime="0.00" waitingCount="0" stopTime="0.00" timeLoss="59.15" rerouteNo="0" devices="tripinfo_random28" vType="type2" speedFactor="1.13" vaporized=""/>
    <tripinfo id="random15" depart="84.00" departLane="gneE1_0" departPos="5.10" departSpeed="0.00" departDelay="29.00" arrival="177.00" arrivalLane="gneE2_0" arrivalPos="491.30" arrivalSpeed="9.28" duration="93.00" routeLength="701.88" waitingTime="0.00" waitingCount="0" stopTime="0.00" timeLoss="34.48" rerouteNo="0" devices="tripinfo_random15" vType="type1" speedFactor="0.93" vaporized=""/>
    <tripinfo id="random29" depart="72.00" departLane="gneE3_0" departPos="5.10" departSpeed="0.00" departDelay="12.00" arrival="177.00" arrivalLane="gneE4_0" arrivalPos="431.40" arrivalSpeed="9.07" duration="105.00" routeLength="775.51" waitingTime="0.00" waitingCount="0" stopTime="0.00" timeLoss="39.46" rerouteNo="0" devices="tripinfo_random29" vType="type1" speedFactor="0.93" vaporized=""/>
    <tripinfo id="random16" depart="89.00" departLane="gneE1_0" departPos="5.10" departSpeed="0.00" departDelay="34.00" arrival="179.00" arrivalLane="gneE2_0" arrivalPos="491.30" arrivalSpeed="11.04" duration="90.00" routeLength="701.88" waitingTime="0.00" waitingCount="0" stopTime="0.00" timeLoss="32.26" rerouteNo="0" devices="tripinfo_random16" vType="type2" speedFactor="0.88" vaporized=""/>
    <tripinfo id="random17" depart="93.00" departLane="gneE1_0" departPos="5.10" departSpeed="0.00" departDelay="38.00" arrival="181.00" arrivalLane="gneE2_0" arrivalPos="491.30" arrivalSpeed="10.59" duration="88.00" routeLength="701.88" waitingTime="0.00" waitingCount="0" stopTime="0.00" timeLoss="29.42" rerouteNo="0" devices="tripinfo_random17" vType="type1" speedFactor="0.94" vaporized=""/>
    <tripinfo id="random49" depart="108.00" departLane="gneE0_0" departPos="5.10" departSpeed="0.00" departDelay="38.00" arrival="183.00" arrivalLane="gneE0_0" arrivalPos="671.08" arrivalSpeed="9.82" duration="75.00" routeLength="665.98" waitingTime="0.00" waitingCount="0" stopTime="0.00" timeLoss="9.19" rerouteNo="0" devices="tripinfo_random49" vType="type1" speedFactor="0.85" vaporized=""/>
    <tripinfo id="random59" depart="118.00" departLane="gneE0_0" departPos="5.10" departSpeed="0.00" departDelay="43.00" arrival="183.00" arrivalLane="gneE0_1" arrivalPos="671.08" arrivalSpeed="9.99" duration="65.00" routeLength="665.98" waitingTime="0.00" waitingCount="0" stopTime="0.00" timeLoss="7.43" rerouteNo="0" devices="tripinfo_random59" vType="type2" speedFactor="0.97" vaporized=""/>
    <tripinfo id="random54" depart="113.00" departLane="gneE0_0" departPos="5.10" departSpeed="0.00" departDelay="38.00" arrival="185.00" arrivalLane="gneE0_1" arrivalPos="671.08" arrivalSpeed="11.89" duration="72.00" routeLength="665.98" waitingTime="0.00" waitingCount="0" stopTime="0.00" timeLoss="15.80" rerouteNo="0" devices="tripinfo_random54" vType="type1" speedFactor="1.00" vaporized=""/>
    <tripinfo id="random33" depart="79.00" departLane="gneE3_0" departPos="8.10" departSpeed="0.00" departDelay="14.00" arrival="186.00" arrivalLane="gneE4_0" arrivalPos="431.40" arrivalSpeed="7.95" duration="107.00" routeLength="772.51" waitingTime="0.00" waitingCount="0" stopTime="0.00" timeLoss="10.23" rerouteNo="0" devices="tripinfo_random33" vType="type3" speedFactor="1.17" vaporized=""/>
    <tripinfo id="1" depart="119.00" departLane="gneE0_0" departPos="5.10" departSpeed="0.00" departDelay="43.05" arrival="186.00" arrivalLane="gneE0_1" arrivalPos="671.08" arrivalSpeed="11.83" duration="67.00" routeLength="665.98" waitingTime="0.00" waitingCount="0" stopTime="0.00" timeLoss="11.50" rerouteNo="0" devices="tripinfo_1" vType="type1" speedFactor="1.07" vaporized=""/>
    <tripinfo id="random62" depart="124.00" departLane="gneE0_0" departPos="5.10" departSpeed="0.00" departDelay="44.00" arrival="190.00" arrivalLane="gneE0_0" arrivalPos="671.08" arrivalSpeed="11.74" duration="66.00" routeLength="665.98" waitingTime="0.00" waitingCount="0" stopTime="0.00" timeLoss="9.61" rerouteNo="0" devices="tripinfo_random62" vType="type1" speedFactor="1.02" vaporized=""/>
    <tripinfo id="random34" depart="85.00" departLane="gneE3_0" departPos="8.10" departSpeed="0.00" departDelay="20.00" arrival="193.00" arrivalLane="gneE4_0" arrivalPos="431.40" arrivalSpeed="8.00" duration="108.00" routeLength="772.51" waitingTime="0.00" waitingCount="0" stopTime="0.00" timeLoss="10.07" rerouteNo="0" devices="tripinfo_random34" vType="type3" speedFactor="0.99" vaporized=""/>
    <tripinfo id="random42" depart="103.00" departLane="gneE0_0" departPos="8.10" departSpeed="0.00" departDelay="33.00" arrival="194.00" arrivalLane="gneE0_0" arrivalPos="671.08" arrivalSpeed="7.65" duration="91.00" routeLength="662.98" waitingTime="0.00" waitingCount="0" stopTime="0.00" timeLoss="7.48" rerouteNo="0" devices="tripinfo_random42" vType="type3" speedFactor="1.09" vaporized=""/>
    <tripinfo id="random35" depart="90.00" departLane="gneE3_0" departPos="5.10" departSpeed="0.00" departDelay="25.00" arrival="195.00" arrivalLane="gneE4_0" arrivalPos="431.40" arrivalSpeed="13.14" duration="105.00" routeLength="775.51" waitingTime="0.00" waitingCount="0" stopTime="0.00" timeLoss="52.97" rerouteNo="0" devices="tripinfo_random35" vType="type2" speedFactor="1.02" vaporized=""/>
    <tripinfo id="random20" depart="99.00" departLane="gneE1_0" departPos="8.10" departSpeed="0.00" departDelay="39.00" arrival="197.00" arrivalLane="gneE2_0" arrivalPos="491.30" arrivalSpeed="7.88" duration="98.00" routeLength="698.88" waitingTime="0.00" waitingCount="0" stopTime="0.00" timeLoss="9.77" rerouteNo="0" devices="tripinfo_random20" vType="type3" speedFactor="1.02" vaporized=""/>
    <tripinfo id="random45" depart="93.00" departLane="gneE3_0" departPos="5.10" departSpeed="0.00" departDelay="23.00" arrival="197.00" arrivalLane="gneE4_0" arrivalPos="431.40" arrivalSpeed="9.32" duration="104.00" routeLength="775.51" waitingTime="0.00" waitingCount="0" stopTime="0.00" timeLoss="39.12" rerouteNo="0" devices="tripinfo_random45" vType="type1" speedFactor="1.09" vaporized=""/>
    <tripinfo id="random68" depart="135.00" departLane="gneE0_0" departPos="5.10" departSpeed="0.00" departDelay="55.00" arrival="197.00" arrivalLane="gneE0_0" arrivalPos="671.08" arrivalSpeed="11.18" duration="62.00" routeLength="665.98" waitingTime="0.00" waitingCount="0" stopTime="0.00" timeLoss="8.18" rerouteNo="0" devices="tripinfo_random68" vType="type2" speedFactor="1.04" vaporized=""/>
    <tripinfo id="random21" depart="104.00" departLane="gneE1_0" departPos="5.10" departSpeed="0.00" departDelay="44.00" arrival="199.00" arrivalLane="gneE2_0" arrivalPos="491.30" arrivalSpeed="12.70" duration="95.00" routeLength="701.88" waitingTime="0.00" waitingCount="0" stopTime="0.00" timeLoss="44.24" rerouteNo="0" devices="tripinfo_random21" vType="type2" speedFactor="1.01" vaporized=""/>
    <tripinfo id="random46" depart="98.00" departLane="gneE3_0" departPos="5.10" departSpeed="0.00" departDelay="28.00" arrival="199.00" arrivalLane="gneE4_0" arrivalPos="431.40" arrivalSpeed="9.73" duration="101.00" routeLength="775.51" waitingTime="0.00" waitingCount="0" stopTime="0.00" timeLoss="35.98" rerouteNo="0" devices="tripinfo_random46" vType="type1" speedFactor="1.00" vaporized=""/>
    <tripinfo id="random69" depart="136.00" departLane="gneE0_0" departPos="5.10" departSpeed="0.00" departDelay="56.00" arrival="200.00" arrivalLane="gneE0_1" arrivalPos="671.08" arrivalSpeed="11.21" duration="64.00" routeLength="665.98" waitingTime="0.00" waitingCount="0" stopTime="0.00" timeLoss="8.90" rerouteNo="0" devices="tripinfo_random69" vType="type2" speedFactor="1.02" vaporized=""/>
    <tripinfo id="random22" depart="107.00" departLane="gneE1_0" departPos="5.10" departSpeed="0.00" departDelay="47.00" arrival="201.00" arrivalLane="gneE2_0" arrivalPos="491.30" arrivalSpeed="8.88" duration="94.00" routeLength="701.88" waitingTime="0.00" waitingCount="0" stopTime="0.00" timeLoss="35.28" rerouteNo="0" devices="tripinfo_random22" vType="type1" speedFactor="0.98" vaporized=""/>
    <tripinfo id="random50" depart="103.00" departLane="gneE3_0" departPos="5.10" departSpeed="0.00" departDelay="28.00" arrival="201.00" arrivalLane="gneE4_0" arrivalPos="431.40" arrivalSpeed="11.30" duration="98.00" routeLength="775.51" waitingTime="0.00" waitingCount="0" stopTime="0.00" timeLoss="37.00" rerouteNo="0" devices="tripinfo_random50" vType="type2" speedFactor="0.85" vaporized=""/>
    <tripinfo id="random23" depart="112.00" departLane="gneE1_0" departPos="5.10" departSpeed="0.00" departDelay="52.00" arrival="203.00" arrivalLane="gneE2_0" arrivalPos="491.30" arrivalSpeed="9.37" duration="91.00" routeLength="701.88" waitingTime="0.00" waitingCount="0" stopTime="0.00" timeLoss="32.17" rerouteNo="0" devices="tripinfo_random23" vType="type1" speedFactor="0.89" vaporized=""/>
    <tripinfo id="random53" depart="106.00" departLane="gneE3_0" departPos="5.10" departSpeed="0.00" departDelay="31.00" arrival="203.00" arrivalLane="gneE4_0" arrivalPos="431.40" arrivalSpeed="10.07" duration="97.00" routeLength="775.51" waitingTime="0.00" waitingCount="0" stopTime="0.00" timeLoss="31.35" rerouteNo="0" devices="tripinfo_random53" vType="type1" speedFactor="1.10" vaporized=""/>
    <tripinfo id="random24" depart="117.00" departLane="gneE1_0" departPos="5.10" departSpeed="0.00" departDelay="57.00" arrival="205.00" arrivalLane="gneE2_0" arrivalPos="491.30" arrivalSpeed="11.13" duration="88.00" routeLength="701.88" waitingTime="0.00" waitingCount="0" stopTime="0.00" timeLoss="26.21" rerouteNo="0" devices="tripinfo_random24" vType="type2" speedFactor="0.83" vaporized=""/>
    <tripinfo id="random27" depart="120.00" departLane="gneE1_0" departPos="5.10" departSpeed="0.00" departDelay="60.00" arrival="207.00" arrivalLane="gneE2_0" arrivalPos="491.30" arrivalSpeed="10.25" duration="87.00" routeLength="701.88" waitingTime="0.00" waitingCount="0" stopTime="0.00" timeLoss="28.17" rerouteNo="0" devices="tripinfo_random27" vType="type1" speedFactor="0.95" vaporized=""/>
    <tripinfo id="random31" depart="126.00" departLane="gneE1_0" departPos="5.10" departSpeed="0.00" departDelay="61.00" arrival="209.00" arrivalLane="gneE2_0" arrivalPos="491.30" arrivalSpeed="10.89" duration="83.00" routeLength="701.88" waitingTime="0.00" waitingCount="0" stopTime="0.00" timeLoss="23.93" rerouteNo="0" devices="tripinfo_random31" vType="type1" speedFactor="1.15" vaporized=""/>
    <tripinfo id="17" depart="139.00" departLane="gneE0_0" departPos="5.10" departSpeed="0.00" departDelay="58.56" arrival="210.00" arrivalLane="gneE0_0" arrivalPos="671.08" arrivalSpeed="10.95" duration="71.00" routeLength="665.98" waitingTime="0.00" waitingCount="0" stopTime="0.00" timeLoss="9.55" rerouteNo="0" devices="tripinfo_17" vType="type1" speedFactor="0.91" vaporized=""/>
    <tripinfo id="random32" depart="131.00" departLane="gneE1_0" departPos="5.10" departSpeed="0.00" departDelay="66.00" arrival="211.00" arrivalLane="gneE2_0" arrivalPos="491.30" arrivalSpeed="13.88" duration="80.00" routeLength="701.88" waitingTime="0.00" waitingCount="0" stopTime="0.00" timeLoss="28.98" rerouteNo="0" devices="tripinfo_random32" vType="type2" speedFactor="1.01" vaporized=""/>
    <tripinfo id="random36" depart="134.00" departLane="gneE1_0" departPos="5.10" departSpeed="0.00" departDelay="69.00" arrival="212.00" arrivalLane="gneE2_0" arrivalPos="491.30" arrivalSpeed="13.39" duration="78.00" routeLength="701.88" waitingTime="0.00" waitingCount="0" stopTime="0.00" timeLoss="26.07" rerouteNo="0" devices="tripinfo_random36" vType="type2" speedFactor="0.97" vaporized=""/>
    <tripinfo id="18" depart="144.00" departLane="gneE0_0" departPos="5.10" departSpeed="0.00" departDelay="62.33" arrival="216.00" arrivalLane="gneE0_0" arrivalPos="671.08" arrivalSpeed="10.73" duration="72.00" routeLength="665.98" waitingTime="0.00" waitingCount="0" stopTime="0.00" timeLoss="11.08" rerouteNo="0" devices="tripinfo_18" vType="type1" speedFactor="0.92" vaporized=""/>
    <tripinfo id="9" depart="150.00" departLane="gneE0_0" departPos="5.10" departSpeed="0.00" departDelay="66.80" arrival="217.00" arrivalLane="gneE0_1" arrivalPos="671.08" arrivalSpeed="11.83" duration="67.00" routeLength="665.98" waitingTime="0.00" waitingCount="0" stopTime="0.00" timeLoss="11.04" rerouteNo="0" devices="tripinfo_9" vType="type1" speedFactor="1.05" vaporized=""/>
    <tripinfo id="random58" depart="112.00" departLane="gneE3_0" departPos="8.10" departSpeed="0.00" departDelay="37.00" arrival="220.00" arrivalLane="gneE4_0" arrivalPos="431.40" arrivalSpeed="7.66" duration="108.00" routeLength="772.51" waitingTime="0.00" waitingCount="0" stopTime="0.00" timeLoss="11.12" rerouteNo="0" devices="tripinfo_random58" vType="type3" speedFactor="1.02" vaporized=""/>
    <tripinfo id="13" depart="155.00" departLane="gneE0_0" departPos="5.10" departSpeed="0.00" departDelay="71.04" arrival="221.00" arrivalLane="gneE0_1" arrivalPos="671.08" arrivalSpeed="11.97" duration="66.00" routeLength="665.98" waitingTime="0.00" waitingCount="0" stopTime="0.00" timeLoss="10.09" rerouteNo="0" devices="tripinfo_13" vType="type1" speedFactor="1.09" vaporized=""/>
    <tripinfo id="random60" depart="117.00" departLane="gneE3_0" departPos="5.10" departSpeed="0.00" departDelay="37.00" arrival="222.00" arrivalLane="gneE4_0" arrivalPos="431.40" arrivalSpeed="9.21" duration="105.00" routeLength="775.51" waitingTime="1.00" waitingCount="1" stopTime="0.00" timeLoss="39.65" rerouteNo="0" devices="tripinfo_random60" vType="type1" speedFactor="1.08" vaporized=""/>
    <tripinfo id="random63" depart="129.00" departLane="gneE0_0" departPos="8.10" departSpeed="0.00" departDelay="49.00" arrival="222.00" arrivalLane="gneE0_0" arrivalPos="671.08" arrivalSpeed="7.89" duration="93.00" routeLength="662.98" waitingTime="0.00" waitingCount="0" stopTime="0.00" timeLoss="9.64" rerouteNo="0" devices="tripinfo_random63" vType="type3" speedFactor="0.99" vaporized=""/>
    <tripinfo id="random65" depart="123.00" departLane="gneE3_0" departPos="5.10" departSpeed="0.00" departDelay="43.00" arrival="224.00" arrivalLane="gneE4_0" arrivalPos="431.40" arrivalSpeed="13.02" duration="101.00" routeLength="775.51" waitingTime="0.00" waitingCount="0" stopTime="0.00" timeLoss="41.84" rerouteNo="0" devices="tripinfo_random65" vType="type2" speedFactor="0.88" vaporized=""/>
    <tripinfo id="random67" depart="126.00" departLane="gneE3_0" departPos="5.10" departSpeed="0.00" departDelay="46.00" arrival="226.00" arrivalLane="gneE4_0" arrivalPos="431.40" arrivalSpeed="12.40" duration="100.00" routeLength="775.51" waitingTime="0.00" waitingCount="0" stopTime="0.00" timeLoss="43.01" rerouteNo="0" devices="tripinfo_random67" vType="type2" speedFactor="0.91" vaporized=""/>
    <tripinfo id="19" depart="160.00" departLane="gneE0_0" departPos="5.10" departSpeed="0.00" departDelay="76.93" arrival="227.00" arrivalLane="gneE0_1" arrivalPos="671.08" arrivalSpeed="11.89" duration="67.00" routeLength="665.98" waitingTime="0.00" waitingCount="0" stopTime="0.00" timeLoss="11.24" rerouteNo="0" devices="tripinfo_19" vType="type1" speedFactor="1.03" vaporized=""/>
    <tripinfo id="random70" depart="166.00" departLane="gneE0_0" departPos="5.10" departSpeed="0.00" departDelay="81.00" arrival="228.00" arrivalLane="gneE0_0" arrivalPos="671.08" arrivalSpeed="12.00" duration="62.00" routeLength="665.98" waitingTime="0.00" waitingCount="0" stopTime="0.00" timeLoss="7.33" rerouteNo="0" devices="tripinfo_random70" vType="type2" speedFactor="1.02" vaporized=""/>
    <tripinfo id="random80" depart="130.00" departLane="gneE3_0" departPos="5.10" departSpeed="0.00" departDelay="40.00" arrival="228.00" arrivalLane="gneE4_0" arrivalPos="431.40" arrivalSpeed="15.04" duration="98.00" routeLength="775.51" waitingTime="0.00" waitingCount="0" stopTime="0.00" timeLoss="47.22" rerouteNo="0" devices="tripinfo_random80" vType="type2" speedFactor="1.03" vaporized=""/>
    <tripinfo id="random81" depart="132.00" departLane="gneE3_0" departPos="5.10" departSpeed="0.00" departDelay="42.00" arrival="230.00" arrivalLane="gneE4_0" arrivalPos="431.40" arrivalSpeed="13.74" duration="98.00" routeLength="775.51" waitingTime="0.00" waitingCount="0" stopTime="0.00" timeLoss="44.94" rerouteNo="0" devices="tripinfo_random81" vType="type2" speedFactor="1.00" vaporized=""/>
    <tripinfo id="random84" depart="134.00" departLane="gneE3_0" departPos="5.10" departSpeed="0.00" departDelay="44.00" arrival="233.00" arrivalLane="gneE4_0" arrivalPos="431.40" arrivalSpeed="11.32" duration="99.00" routeLength="775.51" waitingTime="0.00" waitingCount="0" stopTime="0.00" timeLoss="33.83" rerouteNo="0" devices="tripinfo_random84" vType="type1" speedFactor="1.15" vaporized=""/>
    <tripinfo id="random73" depart="169.00" departLane="gneE0_0" departPos="5.10" departSpeed="0.00" departDelay="84.00" arrival="235.00" arrivalLane="gneE0_1" arrivalPos="671.08" arrivalSpeed="11.66" duration="66.00" routeLength="665.98" waitingTime="0.00" waitingCount="0" stopTime="0.00" timeLoss="10.06" rerouteNo="0" devices="tripinfo_random73" vType="type1" speedFactor="1.06" vaporized=""/>
    <tripinfo id="random86" depart="139.00" departLane="gneE3_0" departPos="5.10" departSpeed="0.00" departDelay="49.00" arrival="235.00" arrivalLane="gneE4_0" arrivalPos="431.40" arrivalSpeed="14.91" duration="96.00" routeLength="775.51" waitingTime="0.00" waitingCount="0" stopTime="0.00" timeLoss="42.96" rerouteNo="0" devices="tripinfo_random86" vType="type2" speedFactor="1.00" vaporized=""/>
    <tripinfo id="random72" depart="167.00" departLane="gneE0_0" departPos="5.10" departSpeed="0.00" departDelay="82.00" arrival="236.00" arrivalLane="gneE0_0" arrivalPos="671.08" arrivalSpeed="8.98" duration="69.00" routeLength="665.98" waitingTime="0.00" waitingCount="0" stopTime="0.00" timeLoss="9.24" rerouteNo="0" devices="tripinfo_random72" vType="type2" speedFactor="0.94" vaporized=""/>
    <tripinfo id="random37" depart="138.00" departLane="gneE1_0" departPos="8.10" departSpeed="0.00" departDelay="73.00" arrival="237.00" arrivalLane="gneE2_0" arrivalPos="491.30" arrivalSpeed="7.61" duration="99.00" routeLength="698.88" waitingTime="0.00" waitingCount="0" stopTime="0.00" timeLoss="10.53" rerouteNo="0" devices="tripinfo_random37" vType="type3" speedFactor="1.18" vaporized=""/>
    <tripinfo id="random39" depart="144.00" departLane="gneE1_0" departPos="5.10" departSpeed="0.00" departDelay="79.00" arrival="239.00" arrivalLane="gneE2_0" arrivalPos="491.30" arrivalSpeed="11.70" duration="95.00" routeLength="701.88" waitingTime="0.00" waitingCount="0" stopTime="0.00" timeLoss="38.21" rerouteNo="0" devices="tripinfo_random39" vType="type2" speedFactor="0.90" vaporized=""/>
    <tripinfo id="random40" depart="147.00" departLane="gneE1_0" departPos="5.10" departSpeed="0.00" departDelay="77.00" arrival="241.00" arrivalLane="gneE2_0" arrivalPos="491.30" arrivalSpeed="12.78" duration="94.00" routeLength="701.88" waitingTime="0.00" waitingCount="0" stopTime="0.00" timeLoss="44.12" rerouteNo="0" devices="tripinfo_random40" vType="type2" speedFactor="1.03" vaporized=""/>