<?xml version="1.0" encoding="UTF-8"?>

<!-- generated on 2021-06-12 12:20:54 by Eclipse SUMO GUI Version 1.9.2
<configuration xmlns:xsi="http://www.w3.org/2001/XMLSchema-instance" xsi:noNamespaceSchemaLocation="http://sumo.dlr.de/xsd/sumoConfiguration.xsd">

    <input>
        <net-file value="SUMO/new.net.xml"/>
        <route-files value="SUMO/roundabout.rou.xml"/>
    </input>

    <output>
        <tripinfo-output value="SUMO/tripinfo.xml"/>
    </output>

    <time>
        <begin value="0"/>
        <end value="3600"/>
    </time>

    <processing>
        <time-to-teleport value="-1"/>
    </processing>

    <report>
        <xml-validation value="never"/>
        <xml-validation.routes value="never"/>
        <duration-log.disable value="true"/>
        <no-step-log value="true"/>
    </report>

    <traci_server>
        <remote-port value="59053"/>
    </traci_server>

    <gui_only>
        <gui-settings-file value="SUMO/gui-settings.cfg"/>
        <start value="true"/>
    </gui_only>

</configuration>
-->

<tripinfos xmlns:xsi="http://www.w3.org/2001/XMLSchema-instance" xsi:noNamespaceSchemaLocation="http://sumo.dlr.de/xsd/tripinfo_file.xsd">
    <tripinfo id="random0" depart="50.00" departLane="gneE3_0" departPos="5.10" departSpeed="0.00" departDelay="0.00" arrival="108.00" arrivalLane="gneE4_0" arrivalPos="431.40" arrivalSpeed="14.41" duration="58.00" routeLength="775.51" waitingTime="0.00" waitingCount="0" stopTime="0.00" timeLoss="7.95" rerouteNo="0" devices="tripinfo_random0" vType="type2" speedFactor="1.06" vaporized=""/>
    <tripinfo id="random10" depart="66.00" departLane="gneE0_0" departPos="5.10" departSpeed="0.00" departDelay="6.00" arrival="124.00" arrivalLane="gneE0_0" arrivalPos="671.08" arrivalSpeed="10.72" duration="58.00" routeLength="665.98" waitingTime="0.00" waitingCount="0" stopTime="0.00" timeLoss="6.96" rerouteNo="0" devices="tripinfo_random10" vType="type2" speedFactor="1.09" vaporized=""/>
    <tripinfo id="random6" depart="61.00" departLane="gneE0_0" departPos="5.10" departSpeed="0.00" departDelay="11.00" arrival="127.00" arrivalLane="gneE0_0" arrivalPos="671.08" arrivalSpeed="11.60" duration="66.00" routeLength="665.98" waitingTime="0.00" waitingCount="0" stopTime="0.00" timeLoss="10.38" rerouteNo="0" devices="tripinfo_random6" vType="type1" speedFactor="1.05" vaporized=""/>
    <tripinfo id="random11" depart="67.00" departLane="gneE0_0" departPos="5.10" departSpeed="0.00" departDelay="7.00" arrival="133.00" arrivalLane="gneE0_0" arrivalPos="671.08" arrivalSpeed="11.75" duration="66.00" routeLength="665.98" waitingTime="0.00" waitingCount="0" stopTime="0.00" timeLoss="10.30" rerouteNo="0" devices="tripinfo_random11" vType="type1" speedFactor="1.03" vaporized=""/>
    <tripinfo id="random1" depart="50.00" departLane="gneE0_0" departPos="8.10" departSpeed="0.00" departDelay="0.00" arrival="142.00" arrivalLane="gneE0_0" arrivalPos="671.08" arrivalSpeed="7.60" duration="92.00" routeLength="662.98" waitingTime="0.00" waitingCount="0" stopTime="0.00" timeLoss="8.69" rerouteNo="0" devices="tripinfo_random1" vType="type3" speedFactor="0.94" vaporized=""/>
    <tripinfo id="random15" depart="72.00" departLane="gneE0_0" departPos="5.10" departSpeed="0.00" departDelay="12.00" arrival="142.00" arrivalLane="gneE0_1" arrivalPos="671.08" arrivalSpeed="11.04" duration="70.00" routeLength="665.98" waitingTime="0.00" waitingCount="0" stopTime="0.00" timeLoss="9.75" rerouteNo="0" devices="tripinfo_random15" vType="type1" speedFactor="0.93" vaporized=""/>
    <tripinfo id="random19" depart="87.00" departLane="gneE0_0" departPos="5.10" departSpeed="0.00" departDelay="27.00" arrival="144.00" arrivalLane="gneE0_1" arrivalPos="671.08" arrivalSpeed="11.41" duration="57.00" routeLength="665.98" waitingTime="0.00" waitingCount="0" stopTime="0.00" timeLoss="8.63" rerouteNo="0" devices="tripinfo_random19" vType="type2" speedFactor="1.16" vaporized=""/>
    <tripinfo id="random2" depart="56.00" departLane="gneE0_0" departPos="8.10" departSpeed="0.00" departDelay="6.00" arrival="148.00" arrivalLane="gneE0_0" arrivalPos="671.08" arrivalSpeed="7.72" duration="92.00" routeLength="662.98" waitingTime="0.00" waitingCount="0" stopTime="0.00" timeLoss="8.34" rerouteNo="0" devices="tripinfo_random2" vType="type3" speedFactor="1.01" vaporized=""/>
    <tripinfo id="random3" depart="50.00" departLane="gneE1_0" departPos="8.10" departSpeed="0.00" departDelay="0.00" arrival="148.00" arrivalLane="gneE2_0" arrivalPos="491.30" arrivalSpeed="7.88" duration="98.00" routeLength="698.88" waitingTime="0.00" waitingCount="0" stopTime="0.00" timeLoss="9.91" rerouteNo="0" devices="tripinfo_random3" vType="type3" speedFactor="1.08" vaporized=""/>
    <tripinfo id="random5" depart="55.00" departLane="gneE1_0" departPos="5.10" departSpeed="0.00" departDelay="5.00" arrival="150.00" arrivalLane="gneE2_0" arrivalPos="491.30" arrivalSpeed="8.93" duration="95.00" routeLength="701.88" waitingTime="0.00" waitingCount="0" stopTime="0.00" timeLoss="33.81" rerouteNo="0" devices="tripinfo_random5" vType="type1" speedFactor="0.83" vaporized=""/>
    <tripinfo id="random16" depart="77.00" departLane="gneE0_0" departPos="5.10" departSpeed="0.00" departDelay="17.00" arrival="151.00" arrivalLane="gneE0_0" arrivalPos="671.08" arrivalSpeed="10.16" duration="74.00" routeLength="665.98" waitingTime="0.00" waitingCount="0" stopTime="0.00" timeLoss="10.08" rerouteNo="0" devices="tripinfo_random16" vType="type1" speedFactor="0.88" vaporized=""/>
    <tripinfo id="random8" depart="60.00" departLane="gneE1_0" departPos="5.10" departSpeed="0.00" departDelay="10.00" arrival="152.00" arrivalLane="gneE2_0" arrivalPos="491.30" arrivalSpeed="9.56" duration="92.00" routeLength="701.88" waitingTime="1.00" waitingCount="1" stopTime="0.00" timeLoss="32.39" rerouteNo="0" devices="tripinfo_random8" vType="type1" speedFactor="0.94" vaporized=""/>
    <tripinfo id="random18" depart="82.00" departLane="gneE0_0" departPos="5.10" departSpeed="0.00" departDelay="22.00" arrival="152.00" arrivalLane="gneE0_1" arrivalPos="671.08" arrivalSpeed="10.84" duration="70.00" routeLength="665.98" waitingTime="0.00" waitingCount="0" stopTime="0.00" timeLoss="9.91" rerouteNo="0" devices="tripinfo_random18" vType="type1" speedFactor="0.94" vaporized=""/>
    <tripinfo id="random13" depart="66.00" departLane="gneE1_0" departPos="5.10" departSpeed="0.00" departDelay="6.00" arrival="154.00" arrivalLane="gneE2_0" arrivalPos="491.30" arrivalSpeed="13.95" duration="88.00" routeLength="701.88" waitingTime="0.00" waitingCount="0" stopTime="0.00" timeLoss="42.26" rerouteNo="0" devices="tripinfo_random13" vType="type2" speedFactor="1.12" vaporized=""/>
    <tripinfo id="random17" depart="69.00" departLane="gneE1_0" departPos="5.10" departSpeed="0.00" departDelay="9.00" arrival="156.00" arrivalLane="gneE2_0" arrivalPos="491.30" arrivalSpeed="11.22" duration="87.00" routeLength="701.88" waitingTime="0.00" waitingCount="0" stopTime="0.00" timeLoss="32.72" rerouteNo="0" devices="tripinfo_random17" vType="type2" speedFactor="0.94" vaporized=""/>
    <tripinfo id="random20" depart="89.00" departLane="gneE0_0" departPos="5.10" departSpeed="0.00" departDelay="19.00" arrival="156.00" arrivalLane="gneE0_0" arrivalPos="671.08" arrivalSpeed="11.84" duration="67.00" routeLength="665.98" waitingTime="0.00" waitingCount="0" stopTime="0.00" timeLoss="10.92" rerouteNo="0" devices="tripinfo_random20" vType="type1" speedFactor="1.02" vaporized=""/>
    <tripinfo id="random22" depart="94.00" departLane="gneE0_0" departPos="5.10" departSpeed="0.00" departDelay="24.00" arrival="158.00" arrivalLane="gneE0_0" arrivalPos="671.08" arrivalSpeed="11.69" duration="64.00" routeLength="665.98" waitingTime="0.00" waitingCount="0" stopTime="0.00" timeLoss="6.96" rerouteNo="0" devices="tripinfo_random22" vType="type2" speedFactor="0.98" vaporized=""/>
    <tripinfo id="random4" depart="52.00" departLane="gneE3_0" departPos="8.10" departSpeed="0.00" departDelay="2.00" arrival="160.00" arrivalLane="gneE4_0" arrivalPos="431.40" arrivalSpeed="7.83" duration="108.00" routeLength="772.51" waitingTime="0.00" waitingCount="0" stopTime="0.00" timeLoss="10.82" rerouteNo="0" devices="tripinfo_random4" vType="type3" speedFactor="1.03" vaporized=""/>
    <tripinfo id="random7" depart="57.00" departLane="gneE3_0" departPos="5.10" departSpeed="0.00" departDelay="7.00" arrival="162.00" arrivalLane="gneE4_0" arrivalPos="431.40" arrivalSpeed="9.16" duration="105.00" routeLength="775.51" waitingTime="0.00" waitingCount="0" stopTime="0.00" timeLoss="39.37" rerouteNo="0" devices="tripinfo_random7" vType="type1" speedFactor="0.89" vaporized=""/>
    <tripinfo id="random9" depart="62.00" departLane="gneE3_0" departPos="5.10" departSpeed="0.00" departDelay="12.00" arrival="164.00" arrivalLane="gneE4_0" arrivalPos="431.40" arrivalSpeed="9.76" duration="102.00" routeLength="775.51" waitingTime="0.00" waitingCount="0" stopTime="0.00" timeLoss="36.85" rerouteNo="0" devices="tripinfo_random9" vType="type1" speedFactor="0.86" vaporized=""/>
    <tripinfo id="random25" depart="95.00" departLane="gneE0_0" departPos="5.10" departSpeed="0.00" departDelay="25.00" arrival="169.00" arrivalLane="gneE0_0" arrivalPos="671.08" arrivalSpeed="10.41" duration="74.00" routeLength="665.98" waitingTime="0.00" waitingCount="0" stopTime="0.00" timeLoss="9.66" rerouteNo="0" devices="tripinfo_random25" vType="type2" speedFactor="0.87" vaporized=""/>
    <tripinfo id="4" depart="102.00" departLane="gneE0_0" departPos="5.10" departSpeed="0.00" departDelay="24.00" arrival="169.00" arrivalLane="gneE0_1" arrivalPos="671.08" arrivalSpeed="10.85" duration="67.00" routeLength="665.98" waitingTime="0.00" waitingCount="0" stopTime="0.00" timeLoss="8.33" rerouteNo="0" devices="tripinfo_4" vType="type2" speedFactor="0.95" vaporized=""/>
    <tripinfo id="random21" depart="73.00" departLane="gneE1_0" departPos="8.10" departSpeed="0.00" departDelay="3.00" arrival="171.00" arrivalLane="gneE2_0" arrivalPos="491.30" arrivalSpeed="7.95" duration="98.00" routeLength="698.88" waitingTime="0.00" waitingCount="0" stopTime="0.00" timeLoss="10.11" rerouteNo="0" devices="tripinfo_random21" vType="type3" speedFactor="1.01" vaporized=""/>
    <tripinfo id="random27" depart="97.00" departLane="gneE0_0" departPos="5.10" departSpeed="0.00" departDelay="27.00" arrival="171.00" arrivalLane="gneE0_0" arrivalPos="671.08" arrivalSpeed="11.35" duration="74.00" routeLength="665.98" waitingTime="0.00" waitingCount="0" stopTime="0.00" timeLoss="14.53" rerouteNo="0" devices="tripinfo_random27" vType="type1" speedFactor="0.95" vaporized=""/>
    <tripinfo id="random32" depart="104.00" departLane="gneE0_0" departPos="5.10" departSpeed="0.00" departDelay="24.00" arrival="171.00" arrivalLane="gneE0_1" arrivalPos="671.08" arrivalSpeed="11.84" duration="67.00" routeLength="665.98" waitingTime="0.00" waitingCount="0" stopTime="0.00" timeLoss="10.80" rerouteNo="0" devices="tripinfo_random32" vType="type1" speedFactor="1.01" vaporized=""/>
    <tripinfo id="random12" depart="68.00" departLane="gneE3_0" departPos="8.10" departSpeed="0.00" departDelay="8.00" arrival="176.00" arrivalLane="gneE4_0" arrivalPos="431.40" arrivalSpeed="7.68" duration="108.00" routeLength="772.51" waitingTime="0.00" waitingCount="0" stopTime="0.00" timeLoss="10.72" rerouteNo="0" devices="tripinfo_random12" vType="type3" speedFactor="1.05" vaporized=""/>
    <tripinfo id="random14" depart="73.00" departLane="gneE3_0" departPos="5.10" departSpeed="0.00" departDelay="13.00" arrival="178.00" arrivalLane="gneE4_0" arrivalPos="431.40" arrivalSpeed="12.37" duration="105.00" routeLength="775.51" waitingTime="0.00" waitingCount="0" stopTime="0.00" timeLoss="51.91" rerouteNo="0" devices="tripinfo_random14" vType="type2" speedFactor="0.99" vaporized=""/>
    <tripinfo id="random24" depart="79.00" departLane="gneE1_0" departPos="8.10" departSpeed="0.00" departDelay="9.00" arrival="178.00" arrivalLane="gneE2_0" arrivalPos="491.30" arrivalSpeed="7.62" duration="99.00" routeLength="698.88" waitingTime="0.00" waitingCount="0" stopTime="0.00" timeLoss="11.02" rerouteNo="0" devices="tripinfo_random24" vType="type3" speedFactor="0.83" vaporized=""/>
    <tripinfo id="random23" depart="77.00" departLane="gneE3_0" departPos="5.10" departSpeed="0.00" departDelay="7.00" arrival="180.00" arrivalLane="gneE4_0" arrivalPos="431.40" arrivalSpeed="12.41" duration="103.00" routeLength="775.51" waitingTime="0.00" waitingCount="0" stopTime="0.00" timeLoss="44.24" rerouteNo="0" devices="tripinfo_random23" vType="type2" speedFactor="0.89" vaporized=""/>
    <tripinfo id="random30" depart="85.00" departLane="gneE1_0" departPos="8.10" departSpeed="0.00" departDelay="5.00" arrival="182.00" arrivalLane="gneE2_0" arrivalPos="491.30" arrivalSpeed="7.92" duration="97.00" routeLength="698.88" waitingTime="0.00" waitingCount="0" stopTime="0.00" timeLoss="9.35" rerouteNo="0" devices="tripinfo_random30" vType="type3" speedFactor="1.18" vaporized=""/>
    <tripinfo id="random35" depart="90.00" departLane="gneE1_0" departPos="5.10" departSpeed="0.00" departDelay="10.00" arrival="184.00" arrivalLane="gneE2_0" arrivalPos="491.30" arrivalSpeed="9.34" duration="94.00" routeLength="701.88" waitingTime="0.00" waitingCount="0" stopTime="0.00" timeLoss="34.79" rerouteNo="0" devices="tripinfo_random35" vType="type1" speedFactor="1.02" vaporized=""/>
    <tripinfo id="random36" depart="115.00" departLane="gneE0_0" departPos="5.10" departSpeed="0.00" departDelay="35.00" arrival="186.00" arrivalLane="gneE0_0" arrivalPos="671.08" arrivalSpeed="11.51" duration="71.00" routeLength="665.98" waitingTime="0.00" waitingCount="0" stopTime="0.00" timeLoss="13.05" rerouteNo="0" devices="tripinfo_random36" vType="type1" speedFactor="0.97" vaporized=""/>
    <tripinfo id="random38" depart="95.00" departLane="gneE1_0" departPos="5.10" departSpeed="0.00" departDelay="15.00" arrival="186.00" arrivalLane="gneE2_0" arrivalPos="491.30" arrivalSpeed="10.01" duration="91.00" routeLength="701.88" waitingTime="0.00" waitingCount="0" stopTime="0.00" timeLoss="31.67" rerouteNo="0" devices="tripinfo_random38" vType="type1" speedFactor="1.10" vaporized=""/>
    <tripinfo id="random41" depart="120.00" departLane="gneE0_0" departPos="5.10" departSpeed="0.00" departDelay="30.00" arrival="187.00" arrivalLane="gneE0_0" arrivalPos="671.08" arrivalSpeed="10.56" duration="67.00" routeLength="665.98" waitingTime="0.00" waitingCount="0" stopTime="0.00" timeLoss="8.63" rerouteNo="0" devices="tripinfo_random41" vType="type2" speedFactor="0.96" vaporized=""/>
    <tripinfo id="random26" depart="80.00" departLane="gneE3_0" departPos="8.10" departSpeed="0.00" departDelay="10.00" arrival="188.00" arrivalLane="gneE4_0" arrivalPos="431.40" arrivalSpeed="7.75" duration="108.00" routeLength="772.51" waitingTime="0.00" waitingCount="0" stopTime="0.00" timeLoss="10.67" rerouteNo="0" devices="tripinfo_random26" vType="type3" speedFactor="0.92" vaporized=""/>
    <tripinfo id="random40" depart="100.00" departLane="gneE1_0" departPos="5.10" departSpeed="0.00" departDelay="10.00" arrival="188.00" arrivalLane="gneE2_0" arrivalPos="491.30" arrivalSpeed="10.14" duration="88.00" routeLength="701.88" waitingTime="0.00" waitingCount="0" stopTime="0.00" timeLoss="29.16" rerouteNo="0" devices="tripinfo_random40" vType="type1" speedFactor="1.03" vaporized=""/>
    <tripinfo id="random28" depart="85.00" departLane="gneE3_0" departPos="5.10" departSpeed="0.00" departDelay="15.00" arrival="190.00" arrivalLane="gneE4_0" arrivalPos="431.40" arrivalSpeed="9.12" duration="105.00" routeLength="775.51" waitingTime="0.00" waitingCount="0" stopTime="0.00" timeLoss="39.34" rerouteNo="0" devices="tripinfo_random28" vType="type1" speedFactor="1.13" vaporized=""/>
    <tripinfo id="random43" depart="105.00" departLane="gneE1_0" departPos="5.10" departSpeed="0.00" departDelay="15.00" arrival="190.00" arrivalLane="gneE2_0" arrivalPos="491.30" arrivalSpeed="10.01" duration="85.00" routeLength="701.88" waitingTime="0.00" waitingCount="0" stopTime="0.00" timeLoss="26.08" rerouteNo="0" devices="tripinfo_random43" vType="type1" speedFactor="1.04" vaporized=""/>
    <tripinfo id="random29" depart="90.00" departLane="gneE3_0" departPos="5.10" departSpeed="0.00" departDelay="20.00" arrival="192.00" arrivalLane="gneE4_0" arrivalPos="431.40" arrivalSpeed="12.40" duration="102.00" routeLength="775.51" waitingTime="0.00" waitingCount="0" stopTime="0.00" timeLoss="45.26" rerouteNo="0" devices="tripinfo_random29" vType="type2" speedFactor="0.93" vaporized=""/>
    <tripinfo id="random44" depart="110.00" departLane="gneE1_0" departPos="5.10" departSpeed="0.00" departDelay="20.00" arrival="192.00" arrivalLane="gneE2_0" arrivalPos="491.30" arrivalSpeed="13.34" duration="82.00" routeLength="701.88" waitingTime="0.00" waitingCount="0" stopTime="0.00" timeLoss="32.81" rerouteNo="0" devices="tripinfo_random44" vType="type2" speedFactor="1.04" vaporized=""/>
    <tripinfo id="random31" depart="94.00" departLane="gneE3_0" departPos="5.10" departSpeed="0.00" departDelay="14.00" arrival="193.00" arrivalLane="gneE4_0" arrivalPos="431.40" arrivalSpeed="15.36" duration="99.00" routeLength="775.51" waitingTime="0.00" waitingCount="0" stopTime="0.00" timeLoss="54.06" rerouteNo="0" devices="tripinfo_random31" vType="type2" speedFactor="1.15" vaporized=""/>
    <tripinfo id="random47" depart="113.00" departLane="gneE1_0" departPos="5.10" departSpeed="0.00" departDelay="23.00" arrival="194.00" arrivalLane="gneE2_0" arrivalPos="491.30" arrivalSpeed="11.22" duration="81.00" routeLength="701.88" waitingTime="0.00" waitingCount="0" stopTime="0.00" timeLoss="22.06" rerouteNo="0" devices="tripinfo_random47" vType="type1" speedFactor="0.90" vaporized=""/>
    <tripinfo id="random33" depart="96.00" departLane="gneE3_0" departPos="5.10" departSpeed="0.00" departDelay="16.00" arrival="195.00" arrivalLane="gneE4_0" arrivalPos="431.40" arrivalSpeed="16.04" duration="99.00" routeLength="775.51" waitingTime="0.00" waitingCount="0" stopTime="0.00" timeLoss="54.31" rerouteNo="0" devices="tripinfo_random33" vType="type2" speedFactor="1.17" vaporized=""/>
    <tripinfo id="1" depart="118.00" departLane="gneE1_0" departPos="5.10" departSpeed="0.00" departDelay="28.00" arrival="196.00" arrivalLane="gneE2_0" arrivalPos="491.30" arrivalSpeed="11.10" duration="78.00" routeLength="701.88" waitingTime="0.00" waitingCount="0" stopTime="0.00" timeLoss="18.98" rerouteNo="0" devices="tripinfo_1" vType="type1" speedFactor="1.07" vaporized=""/>
    <tripinfo id="random37" depart="99.00" departLane="gneE3_0" departPos="5.10" departSpeed="0.00" departDelay="19.00" arrival="198.00" arrivalLane="gneE4_0" arrivalPos="431.40" arrivalSpeed="10.68" duration="99.00" routeLength="775.51" waitingTime="0.00" waitingCount="0" stopTime="0.00" timeLoss="33.87" rerouteNo="0" devices="tripinfo_random37" vType="type1" speedFactor="1.18" vaporized=""/>
    <tripinfo id="random34" depart="110.00" departLane="gneE0_0" departPos="8.10" departSpeed="0.00" departDelay="30.00" arrival="202.00" arrivalLane="gneE0_0" arrivalPos="671.08" arrivalSpeed="7.83" duration="92.00" routeLength="662.98" waitingTime="0.00" waitingCount="0" stopTime="0.00" timeLoss="8.40" rerouteNo="0" devices="tripinfo_random34" vType="type3" speedFactor="0.99" vaporized=""/>
    <tripinfo id="random65" depart="139.00" departLane="gneE0_0" departPos="5.10" departSpeed="0.00" departDelay="29.00" arrival="212.00" arrivalLane="gneE0_0" arrivalPos="671.08" arrivalSpeed="10.21" duration="73.00" routeLength="665.98" waitingTime="0.00" waitingCount="0" stopTime="0.00" timeLoss="9.47" rerouteNo="0" devices="tripinfo_random65" vType="type1" speedFactor="0.88" vaporized=""/>
    <tripinfo id="random39" depart="104.00" departLane="gneE3_0" departPos="8.10" departSpeed="0.00" departDelay="24.00" arrival="213.00" arrivalLane="gneE4_0" arrivalPos="431.40" arrivalSpeed="7.94" duration="109.00" routeLength="772.51" waitingTime="0.00" waitingCount="0" stopTime="0.00" timeLoss="12.11" rerouteNo="0" devices="tripinfo_random39" vType="type3" speedFactor="0.90" vaporized=""/>
    <tripinfo id="random46" depart="122.00" departLane="gneE0_0" departPos="8.10" departSpeed="0.00" departDelay="32.00" arrival="214.00" arrivalLane="gneE0_0" arrivalPos="671.08" arrivalSpeed="7.78" duration="92.00" routeLength="662.98" waitingTime="0.00" waitingCount="0" stopTime="0.00" timeLoss="8.24" rerouteNo="0" devices="tripinfo_random46" vType="type3" speedFactor="1.00" vaporized=""/>
    <tripinfo id="random76" depart="150.00" departLane="gneE0_0" departPos="5.10" departSpeed="0.00" departDelay="30.00" arrival="214.00" arrivalLane="gneE0_1" arrivalPos="671.08" arrivalSpeed="10.26" duration="64.00" routeLength="665.98" waitingTime="0.00" waitingCount="0" stopTime="0.00" timeLoss="9.79" rerouteNo="0" devices="tripinfo_random76" vType="type2" speedFactor="1.03" vaporized=""/>
    <tripinfo id="3" depart="110.00" departLane="gneE3_0" departPos="5.10" departSpeed="0.00" departDelay="30.00" arrival="215.00" arrivalLane="gneE4_0" arrivalPos="431.40" arrivalSpeed="8.84" duration="105.00" routeLength="775.51" waitingTime="0.00" waitingCount="0" stopTime="0.00" timeLoss="39.70" rerouteNo="0" devices="tripinfo_3" vType="type1" speedFactor="0.97" vaporized=""/>
    <tripinfo id="random42" depart="115.00" departLane="gneE3_0" departPos="5.10" departSpeed="0.00" departDelay="25.00" arrival="217.00" arrivalLane="gneE4_0" arrivalPos="431.40" arrivalSpeed="9.41" duration="102.00" routeLength="775.51" waitingTime="0.00" waitingCount="0" stopTime="0.00" timeLoss="37.22" rerouteNo="0" devices="tripinfo_random42" vType="type1" speedFactor="1.09" vaporized=""/>
    <tripinfo id="random78" depart="152.00" departLane="gneE0_0" departPos="5.10" departSpeed="0.00" departDelay="32.00" arrival="217.00" arrivalLane="gneE0_1" arrivalPos="671.08" arrivalSpeed="11.83" duration="65.00" routeLength="665.98" waitingTime="0.00" waitingCount="0" stopTime="0.00" timeLoss="9.36" rerouteNo="0" devices="tripinfo_random78" vType="type1" speedFactor="1.01" vaporized=""/>
    <tripinfo id="random45" depart="121.00" departLane="gneE3_0" departPos="5.10" departSpeed="0.00" departDelay="31.00" arrival="219.00" arrivalLane="gneE4_0" arrivalPos="431.40" arrivalSpeed="9.58" duration="98.00" routeLength="775.51" waitingTime="0.00" waitingCount="0" stopTime="0.00" timeLoss="32.51" rerouteNo="0" devices="tripinfo_random45" vType="type1" speedFactor="1.09" vaporized=""/>
    <tripinfo id="random53" depart="128.00" departLane="gneE0_0" departPos="8.10" departSpeed="0.00" departDelay="28.00" arrival="219.00" arrivalLane="gneE0_0" arrivalPos="671.08" arrivalSpeed="7.76" duration="91.00" routeLength="662.98" waitingTime="0.00" waitingCount="0" stopTime="0.00" timeLoss="8.01" rerouteNo="0" devices="tripinfo_random53" vType="type3" speedFactor="1.10" vaporized=""/>
    <tripinfo id="random48" depart="126.00" departLane="gneE3_0" departPos="5.10" departSpeed="0.00" departDelay="36.00" arrival="221.00" arrivalLane="gneE4_0" arrivalPos="431.40" arrivalSpeed="12.60" duration="95.00" routeLength="775.51" waitingTime="0.00" waitingCount="0" stopTime="0.00" timeLoss="35.09" rerouteNo="0" devices="tripinfo_random48" vType="type2" speedFactor="0.88" vaporized=""/>
    <tripinfo id="random49" depart="129.00" departLane="gneE3_0" departPos="5.10" departSpeed="0.00" departDelay="39.00" arrival="223.00" arrivalLane="gneE4_0" arrivalPos="431.40" arrivalSpeed="11.04" duration="94.00" routeLength="775.51" waitingTime="0.00" waitingCount="0" stopTime="0.00" timeLoss="28.36" rerouteNo="0" devices="tripinfo_random49" vType="type1" speedFactor="0.85" vaporized=""/>
    <tripinfo id="random50" depart="124.00" departLane="gneE1_0" departPos="8.10" departSpeed="0.00" departDelay="24.00" arrival="223.00" arrivalLane="gneE2_0" arrivalPos="491.30" arrivalSpeed="7.67" duration="99.00" routeLength="698.88" waitingTime="0.00" waitingCount="0" stopTime="0.00" timeLoss="10.74" rerouteNo="0" devices="tripinfo_random50" vType="type3" speedFactor="0.85" vaporized=""/>
    <tripinfo id="random58" depart="129.00" departLane="gneE1_0" departPos="5.10" departSpeed="0.00" departDelay="29.00" arrival="225.00" arrivalLane="gneE2_0" arrivalPos="491.30" arrivalSpeed="9.08" duration="96.00" routeLength="701.88" waitingTime="0.00" waitingCount="0" stopTime="0.00" timeLoss="36.98" rerouteNo="0" devices="tripinfo_random58" vType="type1" speedFactor="1.02" vaporized=""/>
    <tripinfo id="random83" depart="157.00" departLane="gneE0_0" departPos="5.10" departSpeed="0.00" departDelay="27.00" arrival="225.00" arrivalLane="gneE0_1" arrivalPos="671.08" arrivalSpeed="11.49" duration="68.00" routeLength="665.98" waitingTime="0.00" waitingCount="0" stopTime="0.00" timeLoss="9.68" rerouteNo="0" devices="tripinfo_random83" vType="type1" speedFactor="0.97" vaporized=""/>
    <tripinfo id="random60" depart="134.00" departLane="gneE0_0" departPos="8.10" departSpeed="0.00" departDelay="24.00" arrival="226.00" arrivalLane="gneE0_0" arrivalPos="671.08" arrivalSpeed="7.61" duration="92.00" routeLength="662.98" waitingTime="0.00" waitingCount="0" stopTime="0.00" timeLoss="8.50" rerouteNo="0" devices="tripinfo_random60" vType="type3" speedFactor="1.08" vaporized=""/>
    <tripinfo id="random63" depart="134.00" departLane="gneE1_0" departPos="5.10" departSpeed="0.00" departDelay="24.00" arrival="227.00" arrivalLane="gneE2_0" arrivalPos="491.30" arrivalSpeed="9.80" duration="93.00" routeLength="701.88" waitingTime="0.00" waitingCount="0" stopTime="0.00" timeLoss="33.83" rerouteNo="0" devices="tripinfo_random63" vType="type1" speedFactor="0.99" vaporized=""/>
    <tripinfo id="random86" depart="162.00" departLane="gneE0_0" departPos="5.10" departSpeed="0.00" departDelay="32.00" arrival="228.00" arrivalLane="gneE0_1" arrivalPos="671.08" arrivalSpeed="11.60" duration="66.00" routeLength="665.98" waitingTime="0.00" waitingCount="0" stopTime="0.00" timeLoss="9.94" rerouteNo="0" devices="tripinfo_random86" vType="type1" speedFactor="1.00" vaporized=""/>
    <tripinfo id="random68" depart="139.00" departLane="gneE1_0" departPos="5.10" departSpeed="0.00" departDelay="29.00" arrival="229.00" arrivalLane="gneE2_0" arrivalPos="491.30" arrivalSpeed="10.22" duration="90.00" routeLength="701.88" waitingTime="0.00" waitingCount="0" stopTime="0.00" timeLoss="30.08" rerouteNo="0" devices="tripinfo_random68" vType="type1" speedFactor="1.04" vaporized=""/>
    <tripinfo id="random70" depart="144.00" departLane="gneE1_0" departPos="5.10" departSpeed="0.00" departDelay="24.00" arrival="230.00" arrivalLane="gneE2_0" arrivalPos="491.30" arrivalSpeed="9.81" duration="86.00" routeLength="701.88" waitingTime="0.00" waitingCount="0" stopTime="0.00" timeLoss="27.40" rerouteNo="0" devices="tripinfo_random70" vType="type1" speedFactor="1.02" vaporized=""/>
    <tripinfo id="random88" depart="167.00" departLane="gneE0_0" departPos="5.10" departSpeed="0.00" departDelay="37.00" arrival="234.00" arrivalLane="gneE0_1" arrivalPos="671.08" arrivalSpeed="11.92" duration="67.00" routeLength="665.98" waitingTime="0.00" waitingCount="0" stopTime="0.00" timeLoss="10.72" rerouteNo="0" devices="tripinfo_random88" vType="type1" speedFactor="1.01" vaporized=""/>
    <tripinfo id="random69" depart="145.00" departLane="gneE0_0" departPos="8.10" departSpeed="0.00" departDelay="35.00" arrival="236.00" arrivalLane="gneE0_0" arrivalPos="671.08" arrivalSpeed="7.97" duration="91.00" routeLength="662.98" waitingTime="0.00" waitingCount="0" stopTime="0.00" timeLoss="8.05" rerouteNo="0" devices="tripinfo_random69" vType="type3" speedFactor="1.02" vaporized=""/>
    <tripinfo id="random51" depart="135.00" departLane="gneE3_0" departPos="8.10" departSpeed="0.00" departDelay="35.00" arrival="243.00" arrivalLane="gneE4_0" arrivalPos="431.40" arrivalSpeed="7.91" duration="108.00" routeLength="772.51" waitingTime="0.00" waitingCount="0" stopTime="0.00" timeLoss="10.51" rerouteNo="0" devices="tripinfo_random51" vType="type3" speedFactor="1.17" vaporized=""/>
    <tripinfo id="random96" depart="181.00" departLane="gneE0_0" departPos="5.10" departSpeed="0.00" departDelay="41.00" arrival="244.00" arrivalLane="gneE0_0" arrivalPos="671.08" arrivalSpeed="9.66" duration="63.00" routeLength="665.98" waitingTime="0.00" waitingCount="0" stopTime="0.00" timeLoss="7.70" rerouteNo="0" devices="tripinfo_random96" vType="type2" speedFactor="1.01" vaporized=""/>
    <tripinfo id="random52" depart="140.00" departLane="gneE3_0" departPos="5.10" departSpeed="0.00" departDelay="40.00" arrival="245.00" arrivalLane="gneE4_0" arrivalPos="431.40" arrivalSpeed="14.82" duration="105.00" routeLength="775.51" waitingTime="0.00" waitingCount="0" stopTime="0.00" timeLoss="52.89" rerouteNo="0" devices="tripinfo_random52" vType="type2" speedFactor="1.02" vaporized=""/>
    <tripinfo id="random54" depart="144.00" departLane="gneE3_0" departPos="5.10" departSpeed="0.00" departDelay="44.00" arrival="247.00" arrivalLane="gneE4_0" arrivalPos="431.40" arrivalSpeed="10.09" duration="103.00" routeLength="775.51" waitingTime="0.00" waitingCount="0" stopTime="0.00" timeLoss="37.80" rerouteNo="0" devices="tripinfo_random54" vType="type1" speedFactor="1.00" vaporized=""/>
    <tripinfo id="random71" depart="150.00" departLane="gneE1_0" departPos="8.10" departSpeed="0.00" departDelay="30.00" arrival="248.00" arrivalLane="gneE2_0" arrivalPos="491.30" arrivalSpeed="7.68" duration="98.00" routeLength="698.88" waitingTime="0.00" waitingCount="0" stopTime="0.00" timeLoss="9.74" rerouteNo="0" devices="tripinfo_random71" vType="type3" speedFactor="0.97" vaporized=""/>