<?xml version="1.0" encoding="UTF-8"?>

<!-- generated on 2021-06-21 20:05:04 by Eclipse SUMO GUI Version 1.9.2
<configuration xmlns:xsi="http://www.w3.org/2001/XMLSchema-instance" xsi:noNamespaceSchemaLocation="http://sumo.dlr.de/xsd/sumoConfiguration.xsd">

    <input>
        <net-file value="SUMO/new.net.xml"/>
        <route-files value="SUMO/routes_clear.xml"/>
    </input>

    <output>
        <tripinfo-output value="SUMO/tripinfo.xml"/>
    </output>

    <time>
        <begin value="0"/>
        <end value="3600"/>
    </time>

    <processing>
        <time-to-teleport value="-1"/>
    </processing>

    <report>
        <xml-validation value="never"/>
        <xml-validation.routes value="never"/>
        <duration-log.disable value="true"/>
        <no-step-log value="true"/>
    </report>

    <gui_only>
        <gui-settings-file value="SUMO/gui-settings.cfg"/>
        <start value="true"/>
    </gui_only>

</configuration>
-->

<tripinfos xmlns:xsi="http://www.w3.org/2001/XMLSchema-instance" xsi:noNamespaceSchemaLocation="http://sumo.dlr.de/xsd/tripinfo_file.xsd">
    <tripinfo id="15" depart="12.00" departLane="gneE0_0" departPos="5.10" departSpeed="0.00" departDelay="0.03" arrival="79.00" arrivalLane="gneE0_0" arrivalPos="671.08" arrivalSpeed="11.62" duration="67.00" routeLength="665.98" waitingTime="0.00" waitingCount="0" stopTime="0.00" timeLoss="10.80" rerouteNo="0" devices="tripinfo_15" vType="type1" speedFactor="1.09" vaporized=""/>
    <tripinfo id="2" depart="17.00" departLane="gneE0_0" departPos="5.10" departSpeed="0.00" departDelay="4.46" arrival="87.00" arrivalLane="gneE0_0" arrivalPos="671.08" arrivalSpeed="11.11" duration="70.00" routeLength="665.98" waitingTime="0.00" waitingCount="0" stopTime="0.00" timeLoss="10.32" rerouteNo="0" devices="tripinfo_2" vType="type1" speedFactor="0.94" vaporized=""/>
    <tripinfo id="9" depart="22.00" departLane="gneE0_0" departPos="5.10" departSpeed="0.00" departDelay="5.80" arrival="88.00" arrivalLane="gneE0_1" arrivalPos="671.08" arrivalSpeed="11.78" duration="66.00" routeLength="665.98" waitingTime="0.00" waitingCount="0" stopTime="0.00" timeLoss="9.75" rerouteNo="0" devices="tripinfo_9" vType="type1" speedFactor="1.09" vaporized=""/>
    <tripinfo id="12" depart="27.00" departLane="gneE0_0" departPos="5.10" departSpeed="0.00" departDelay="3.08" arrival="93.00" arrivalLane="gneE0_0" arrivalPos="671.08" arrivalSpeed="11.66" duration="66.00" routeLength="665.98" waitingTime="0.00" waitingCount="0" stopTime="0.00" timeLoss="10.15" rerouteNo="0" devices="tripinfo_12" vType="type1" speedFactor="1.03" vaporized=""/>
    <tripinfo id="7" depart="32.00" departLane="gneE0_0" departPos="5.10" departSpeed="0.00" departDelay="5.94" arrival="104.00" arrivalLane="gneE0_0" arrivalPos="671.08" arrivalSpeed="10.72" duration="72.00" routeLength="665.98" waitingTime="0.00" waitingCount="0" stopTime="0.00" timeLoss="9.71" rerouteNo="0" devices="tripinfo_7" vType="type1" speedFactor="0.90" vaporized=""/>
    <tripinfo id="18" depart="39.00" departLane="gneE0_0" departPos="5.10" departSpeed="0.00" departDelay="0.06" arrival="105.00" arrivalLane="gneE0_1" arrivalPos="671.08" arrivalSpeed="11.95" duration="66.00" routeLength="665.98" waitingTime="0.00" waitingCount="0" stopTime="0.00" timeLoss="10.05" rerouteNo="0" devices="tripinfo_18" vType="type1" speedFactor="1.10" vaporized=""/>
    <tripinfo id="random0" depart="50.00" departLane="gneE3_0" departPos="5.10" departSpeed="0.00" departDelay="0.00" arrival="108.00" arrivalLane="gneE4_0" arrivalPos="431.40" arrivalSpeed="14.41" duration="58.00" routeLength="775.51" waitingTime="0.00" waitingCount="0" stopTime="0.00" timeLoss="8.17" rerouteNo="0" devices="tripinfo_random0" vType="type2" speedFactor="1.06" vaporized=""/>
    <tripinfo id="16" depart="44.00" departLane="gneE0_0" departPos="5.10" departSpeed="0.00" departDelay="4.22" arrival="109.00" arrivalLane="gneE0_0" arrivalPos="671.08" arrivalSpeed="11.99" duration="65.00" routeLength="665.98" waitingTime="0.00" waitingCount="0" stopTime="0.00" timeLoss="9.22" rerouteNo="0" devices="tripinfo_16" vType="type1" speedFactor="1.23" vaporized=""/>
    <tripinfo id="random6" depart="55.00" departLane="gneE0_0" departPos="5.10" departSpeed="0.00" departDelay="5.00" arrival="116.00" arrivalLane="gneE0_0" arrivalPos="671.08" arrivalSpeed="12.53" duration="61.00" routeLength="665.98" waitingTime="0.00" waitingCount="0" stopTime="0.00" timeLoss="7.42" rerouteNo="0" devices="tripinfo_random6" vType="type2" speedFactor="1.05" vaporized=""/>
    <tripinfo id="random1" depart="50.00" departLane="gneE0_0" departPos="5.10" departSpeed="0.00" departDelay="0.00" arrival="119.00" arrivalLane="gneE0_0" arrivalPos="671.08" arrivalSpeed="11.25" duration="69.00" routeLength="665.98" waitingTime="0.00" waitingCount="0" stopTime="0.00" timeLoss="9.82" rerouteNo="0" devices="tripinfo_random1" vType="type1" speedFactor="0.94" vaporized=""/>
    <tripinfo id="random3" depart="50.00" departLane="gneE1_0" departPos="5.10" departSpeed="0.00" departDelay="0.00" arrival="124.00" arrivalLane="gneE2_0" arrivalPos="491.30" arrivalSpeed="11.70" duration="74.00" routeLength="701.88" waitingTime="0.00" waitingCount="0" stopTime="0.00" timeLoss="15.06" rerouteNo="0" devices="tripinfo_random3" vType="type1" speedFactor="1.08" vaporized=""/>
    <tripinfo id="random10" depart="61.00" departLane="gneE0_0" departPos="5.10" departSpeed="0.00" departDelay="9.00" arrival="127.00" arrivalLane="gneE0_0" arrivalPos="671.08" arrivalSpeed="11.83" duration="66.00" routeLength="665.98" waitingTime="0.00" waitingCount="0" stopTime="0.00" timeLoss="9.90" rerouteNo="0" devices="tripinfo_random10" vType="type1" speedFactor="1.09" vaporized=""/>
    <tripinfo id="random4" depart="55.00" departLane="gneE1_0" departPos="5.10" departSpeed="0.00" departDelay="5.00" arrival="130.00" arrivalLane="gneE2_0" arrivalPos="491.30" arrivalSpeed="11.73" duration="75.00" routeLength="701.88" waitingTime="0.00" waitingCount="0" stopTime="0.00" timeLoss="15.61" rerouteNo="0" devices="tripinfo_random4" vType="type1" speedFactor="1.03" vaporized=""/>
    <tripinfo id="random12" depart="71.00" departLane="gneE0_0" departPos="5.10" departSpeed="0.00" departDelay="19.00" arrival="132.00" arrivalLane="gneE0_0" arrivalPos="671.08" arrivalSpeed="10.90" duration="61.00" routeLength="665.98" waitingTime="0.00" waitingCount="0" stopTime="0.00" timeLoss="7.28" rerouteNo="0" devices="tripinfo_random12" vType="type2" speedFactor="1.05" vaporized=""/>
    <tripinfo id="random11" depart="66.00" departLane="gneE0_0" departPos="5.10" departSpeed="0.00" departDelay="14.00" arrival="133.00" arrivalLane="gneE0_1" arrivalPos="671.08" arrivalSpeed="11.81" duration="67.00" routeLength="665.98" waitingTime="0.00" waitingCount="0" stopTime="0.00" timeLoss="11.35" rerouteNo="0" devices="tripinfo_random11" vType="type1" speedFactor="1.03" vaporized=""/>
    <tripinfo id="8" depart="56.00" departLane="gneE0_0" departPos="5.10" departSpeed="0.00" departDelay="6.37" arrival="136.00" arrivalLane="gneE0_0" arrivalPos="671.08" arrivalSpeed="9.05" duration="80.00" routeLength="665.98" waitingTime="0.00" waitingCount="0" stopTime="0.00" timeLoss="8.49" rerouteNo="0" devices="tripinfo_8" vType="type1" speedFactor="0.78" vaporized=""/>
    <tripinfo id="random22" depart="83.00" departLane="gneE0_0" departPos="5.10" departSpeed="0.00" departDelay="29.00" arrival="149.00" arrivalLane="gneE0_0" arrivalPos="671.08" arrivalSpeed="9.57" duration="66.00" routeLength="665.98" waitingTime="0.00" waitingCount="0" stopTime="0.00" timeLoss="8.49" rerouteNo="0" devices="tripinfo_random22" vType="type2" speedFactor="0.98" vaporized=""/>
    <tripinfo id="random29" depart="90.00" departLane="gneE0_0" departPos="5.10" departSpeed="0.00" departDelay="36.00" arrival="158.00" arrivalLane="gneE0_0" arrivalPos="671.08" arrivalSpeed="9.03" duration="68.00" routeLength="665.98" waitingTime="0.00" waitingCount="0" stopTime="0.00" timeLoss="8.40" rerouteNo="0" devices="tripinfo_random29" vType="type2" speedFactor="0.93" vaporized=""/>
    <tripinfo id="random2" depart="52.00" departLane="gneE3_0" departPos="8.10" departSpeed="0.00" departDelay="2.00" arrival="160.00" arrivalLane="gneE4_0" arrivalPos="431.40" arrivalSpeed="7.91" duration="108.00" routeLength="772.51" waitingTime="0.00" waitingCount="0" stopTime="0.00" timeLoss="10.95" rerouteNo="0" devices="tripinfo_random2" vType="type3" speedFactor="1.01" vaporized=""/>
    <tripinfo id="random23" depart="85.00" departLane="gneE0_0" departPos="5.10" departSpeed="0.00" departDelay="31.00" arrival="160.00" arrivalLane="gneE0_1" arrivalPos="671.08" arrivalSpeed="10.56" duration="75.00" routeLength="665.98" waitingTime="0.00" waitingCount="0" stopTime="0.00" timeLoss="12.17" rerouteNo="0" devices="tripinfo_random23" vType="type1" speedFactor="0.89" vaporized=""/>
    <tripinfo id="random8" depart="61.00" departLane="gneE1_0" departPos="8.10" departSpeed="0.00" departDelay="11.00" arrival="161.00" arrivalLane="gneE2_0" arrivalPos="491.30" arrivalSpeed="8.00" duration="100.00" routeLength="698.88" waitingTime="1.00" waitingCount="1" stopTime="0.00" timeLoss="11.66" rerouteNo="0" devices="tripinfo_random8" vType="type3" speedFactor="0.94" vaporized=""/>
    <tripinfo id="20" depart="91.00" departLane="gneE0_0" departPos="5.10" departSpeed="0.00" departDelay="37.10" arrival="162.00" arrivalLane="gneE0_1" arrivalPos="671.08" arrivalSpeed="11.62" duration="71.00" routeLength="665.98" waitingTime="0.00" waitingCount="0" stopTime="0.00" timeLoss="14.77" rerouteNo="0" devices="tripinfo_20" vType="type1" speedFactor="1.09" vaporized=""/>
    <tripinfo id="random17" depart="72.00" departLane="gneE0_0" departPos="8.10" departSpeed="0.00" departDelay="20.00" arrival="163.00" arrivalLane="gneE0_0" arrivalPos="671.08" arrivalSpeed="7.90" duration="91.00" routeLength="662.98" waitingTime="0.00" waitingCount="0" stopTime="0.00" timeLoss="7.57" rerouteNo="0" devices="tripinfo_random17" vType="type3" speedFactor="0.94" vaporized=""/>
    <tripinfo id="random32" depart="96.00" departLane="gneE0_0" departPos="5.10" departSpeed="0.00" departDelay="40.00" arrival="164.00" arrivalLane="gneE0_1" arrivalPos="671.08" arrivalSpeed="11.96" duration="68.00" routeLength="665.98" waitingTime="0.00" waitingCount="0" stopTime="0.00" timeLoss="11.54" rerouteNo="0" devices="tripinfo_random32" vType="type1" speedFactor="1.01" vaporized=""/>
    <tripinfo id="random5" depart="58.00" departLane="gneE3_0" departPos="8.10" departSpeed="0.00" departDelay="8.00" arrival="167.00" arrivalLane="gneE4_0" arrivalPos="431.40" arrivalSpeed="7.96" duration="109.00" routeLength="772.51" waitingTime="0.00" waitingCount="0" stopTime="0.00" timeLoss="11.48" rerouteNo="0" devices="tripinfo_random5" vType="type3" speedFactor="0.83" vaporized=""/>
    <tripinfo id="random9" depart="68.00" departLane="gneE1_0" departPos="8.10" departSpeed="0.00" departDelay="18.00" arrival="167.00" arrivalLane="gneE2_0" arrivalPos="491.30" arrivalSpeed="7.67" duration="99.00" routeLength="698.88" waitingTime="0.00" waitingCount="0" stopTime="0.00" timeLoss="11.45" rerouteNo="0" devices="tripinfo_random9" vType="type3" speedFactor="0.86" vaporized=""/>
    <tripinfo id="11" depart="101.00" departLane="gneE0_0" departPos="5.10" departSpeed="0.00" departDelay="45.03" arrival="168.00" arrivalLane="gneE0_1" arrivalPos="671.08" arrivalSpeed="11.94" duration="67.00" routeLength="665.98" waitingTime="0.00" waitingCount="0" stopTime="0.00" timeLoss="10.85" rerouteNo="0" devices="tripinfo_11" vType="type1" speedFactor="1.03" vaporized=""/>
    <tripinfo id="random30" depart="73.00" departLane="gneE1_0" departPos="5.10" departSpeed="0.00" departDelay="17.00" arrival="169.00" arrivalLane="gneE2_0" arrivalPos="491.30" arrivalSpeed="12.54" duration="96.00" routeLength="701.88" waitingTime="0.00" waitingCount="0" stopTime="0.00" timeLoss="52.34" rerouteNo="0" devices="tripinfo_random30" vType="type2" speedFactor="1.18" vaporized=""/>
    <tripinfo id="random19" depart="78.00" departLane="gneE0_0" departPos="8.10" departSpeed="0.00" departDelay="26.00" arrival="170.00" arrivalLane="gneE0_0" arrivalPos="671.08" arrivalSpeed="7.76" duration="92.00" routeLength="662.98" waitingTime="0.00" waitingCount="0" stopTime="0.00" timeLoss="8.26" rerouteNo="0" devices="tripinfo_random19" vType="type3" speedFactor="1.16" vaporized=""/>
    <tripinfo id="random31" depart="77.00" departLane="gneE1_0" departPos="5.10" departSpeed="0.00" departDelay="21.00" arrival="171.00" arrivalLane="gneE2_0" arrivalPos="491.30" arrivalSpeed="16.02" duration="94.00" routeLength="701.88" waitingTime="0.00" waitingCount="0" stopTime="0.00" timeLoss="49.59" rerouteNo="0" devices="tripinfo_random31" vType="type2" speedFactor="1.15" vaporized=""/>
    <tripinfo id="random7" depart="64.00" departLane="gneE3_0" departPos="8.10" departSpeed="0.00" departDelay="14.00" arrival="173.00" arrivalLane="gneE4_0" arrivalPos="431.40" arrivalSpeed="7.84" duration="109.00" routeLength="772.51" waitingTime="0.00" waitingCount="0" stopTime="0.00" timeLoss="11.83" rerouteNo="0" devices="tripinfo_random7" vType="type3" speedFactor="0.89" vaporized=""/>
    <tripinfo id="random13" depart="69.00" departLane="gneE3_0" departPos="5.10" departSpeed="0.00" departDelay="17.00" arrival="175.00" arrivalLane="gneE4_0" arrivalPos="431.40" arrivalSpeed="16.66" duration="106.00" routeLength="775.51" waitingTime="0.00" waitingCount="0" stopTime="0.00" timeLoss="58.47" rerouteNo="0" devices="tripinfo_random13" vType="type2" speedFactor="1.12" vaporized=""/>
    <tripinfo id="random33" depart="80.00" departLane="gneE1_0" departPos="8.10" departSpeed="0.00" departDelay="24.00" arrival="178.00" arrivalLane="gneE2_0" arrivalPos="491.30" arrivalSpeed="7.94" duration="98.00" routeLength="698.88" waitingTime="0.00" waitingCount="0" stopTime="0.00" timeLoss="9.64" rerouteNo="0" devices="tripinfo_random33" vType="type3" speedFactor="1.17" vaporized=""/>
    <tripinfo id="random48" depart="106.00" departLane="gneE0_0" departPos="5.10" departSpeed="0.00" departDelay="48.00" arrival="179.00" arrivalLane="gneE0_0" arrivalPos="671.08" arrivalSpeed="8.47" duration="73.00" routeLength="665.98" waitingTime="0.00" waitingCount="0" stopTime="0.00" timeLoss="9.46" rerouteNo="0" devices="tripinfo_random48" vType="type2" speedFactor="0.88" vaporized=""/>
    <tripinfo id="random53" depart="112.00" departLane="gneE0_0" departPos="5.10" departSpeed="0.00" departDelay="52.00" arrival="179.00" arrivalLane="gneE0_1" arrivalPos="671.08" arrivalSpeed="11.96" duration="67.00" routeLength="665.98" waitingTime="0.00" waitingCount="0" stopTime="0.00" timeLoss="10.68" rerouteNo="0" devices="tripinfo_random53" vType="type1" speedFactor="1.10" vaporized=""/>
    <tripinfo id="random34" depart="85.00" departLane="gneE1_0" departPos="5.10" departSpeed="0.00" departDelay="29.00" arrival="180.00" arrivalLane="gneE2_0" arrivalPos="491.30" arrivalSpeed="9.15" duration="95.00" routeLength="701.88" waitingTime="0.00" waitingCount="0" stopTime="0.00" timeLoss="36.17" rerouteNo="0" devices="tripinfo_random34" vType="type1" speedFactor="0.99" vaporized=""/>
    <tripinfo id="random14" depart="73.00" departLane="gneE3_0" departPos="8.10" departSpeed="0.00" departDelay="21.00" arrival="182.00" arrivalLane="gneE4_0" arrivalPos="431.40" arrivalSpeed="7.91" duration="109.00" routeLength="772.51" waitingTime="0.00" waitingCount="0" stopTime="0.00" timeLoss="11.62" rerouteNo="0" devices="tripinfo_random14" vType="type3" speedFactor="0.99" vaporized=""/>
    <tripinfo id="random36" depart="90.00" departLane="gneE1_0" departPos="5.10" departSpeed="0.00" departDelay="34.00" arrival="182.00" arrivalLane="gneE2_0" arrivalPos="491.30" arrivalSpeed="12.51" duration="92.00" routeLength="701.88" waitingTime="0.00" waitingCount="0" stopTime="0.00" timeLoss="39.51" rerouteNo="0" devices="tripinfo_random36" vType="type2" speedFactor="0.97" vaporized=""/>
    <tripinfo id="random61" depart="117.00" departLane="gneE0_0" departPos="5.10" departSpeed="0.00" departDelay="55.00" arrival="184.00" arrivalLane="gneE0_0" arrivalPos="671.08" arrivalSpeed="11.73" duration="67.00" routeLength="665.98" waitingTime="0.00" waitingCount="0" stopTime="0.00" timeLoss="10.90" rerouteNo="0" devices="tripinfo_random61" vType="type1" speedFactor="1.12" vaporized=""/>
    <tripinfo id="random15" depart="80.00" departLane="gneE3_0" departPos="8.10" departSpeed="0.00" departDelay="28.00" arrival="188.00" arrivalLane="gneE4_0" arrivalPos="431.40" arrivalSpeed="8.00" duration="108.00" routeLength="772.51" waitingTime="0.00" waitingCount="0" stopTime="0.00" timeLoss="11.15" rerouteNo="0" devices="tripinfo_random15" vType="type3" speedFactor="0.93" vaporized=""/>
    <tripinfo id="random38" depart="94.00" departLane="gneE1_0" departPos="8.10" departSpeed="0.00" departDelay="38.00" arrival="191.00" arrivalLane="gneE2_0" arrivalPos="491.30" arrivalSpeed="7.83" duration="97.00" routeLength="698.88" waitingTime="0.00" waitingCount="0" stopTime="0.00" timeLoss="9.54" rerouteNo="0" devices="tripinfo_random38" vType="type3" speedFactor="1.10" vaporized=""/>
    <tripinfo id="random41" depart="99.00" departLane="gneE1_0" departPos="5.10" departSpeed="0.00" departDelay="41.00" arrival="193.00" arrivalLane="gneE2_0" arrivalPos="491.30" arrivalSpeed="12.43" duration="94.00" routeLength="701.88" waitingTime="0.00" waitingCount="0" stopTime="0.00" timeLoss="40.83" rerouteNo="0" devices="tripinfo_random41" vType="type2" speedFactor="0.96" vaporized=""/>
    <tripinfo id="random16" depart="86.00" departLane="gneE3_0" departPos="8.10" departSpeed="0.00" departDelay="34.00" arrival="194.00" arrivalLane="gneE4_0" arrivalPos="431.40" arrivalSpeed="7.73" duration="108.00" routeLength="772.51" waitingTime="0.00" waitingCount="0" stopTime="0.00" timeLoss="10.95" rerouteNo="0" devices="tripinfo_random16" vType="type3" speedFactor="0.88" vaporized=""/>
    <tripinfo id="random69" depart="133.00" departLane="gneE0_0" departPos="5.10" departSpeed="0.00" departDelay="71.00" arrival="194.00" arrivalLane="gneE0_0" arrivalPos="671.08" arrivalSpeed="11.46" duration="61.00" routeLength="665.98" waitingTime="0.00" waitingCount="0" stopTime="0.00" timeLoss="5.84" rerouteNo="0" devices="tripinfo_random69" vType="type2" speedFactor="1.02" vaporized=""/>
    <tripinfo id="random42" depart="102.00" departLane="gneE1_0" departPos="5.10" departSpeed="0.00" departDelay="44.00" arrival="195.00" arrivalLane="gneE2_0" arrivalPos="491.30" arrivalSpeed="13.26" duration="93.00" routeLength="701.88" waitingTime="0.00" waitingCount="0" stopTime="0.00" timeLoss="46.29" rerouteNo="0" devices="tripinfo_random42" vType="type2" speedFactor="1.09" vaporized=""/>
    <tripinfo id="random68" depart="128.00" departLane="gneE0_0" departPos="5.10" departSpeed="0.00" departDelay="66.00" arrival="195.00" arrivalLane="gneE0_1" arrivalPos="671.08" arrivalSpeed="12.00" duration="67.00" routeLength="665.98" waitingTime="0.00" waitingCount="0" stopTime="0.00" timeLoss="11.13" rerouteNo="0" devices="tripinfo_random68" vType="type1" speedFactor="1.04" vaporized=""/>
    <tripinfo id="random18" depart="91.00" departLane="gneE3_0" departPos="5.10" departSpeed="0.00" departDelay="39.00" arrival="196.00" arrivalLane="gneE4_0" arrivalPos="431.40" arrivalSpeed="11.68" duration="105.00" routeLength="775.51" waitingTime="0.00" waitingCount="0" stopTime="0.00" timeLoss="48.54" rerouteNo="0" devices="tripinfo_random18" vType="type2" speedFactor="0.94" vaporized=""/>
    <tripinfo id="random20" depart="94.00" departLane="gneE3_0" departPos="5.10" departSpeed="0.00" departDelay="40.00" arrival="198.00" arrivalLane="gneE4_0" arrivalPos="431.40" arrivalSpeed="10.39" duration="104.00" routeLength="775.51" waitingTime="0.00" waitingCount="0" stopTime="0.00" timeLoss="38.34" rerouteNo="0" devices="tripinfo_random20" vType="type1" speedFactor="1.02" vaporized=""/>
    <tripinfo id="random45" depart="105.00" departLane="gneE1_0" departPos="5.10" departSpeed="0.00" departDelay="47.00" arrival="198.00" arrivalLane="gneE2_0" arrivalPos="491.30" arrivalSpeed="10.30" duration="93.00" routeLength="701.88" waitingTime="0.00" waitingCount="0" stopTime="0.00" timeLoss="34.07" rerouteNo="0" devices="tripinfo_random45" vType="type1" speedFactor="1.09" vaporized=""/>
    <tripinfo id="random49" depart="107.00" departLane="gneE0_0" departPos="8.10" departSpeed="0.00" departDelay="49.00" arrival="198.00" arrivalLane="gneE0_0" arrivalPos="671.08" arrivalSpeed="7.88" duration="91.00" routeLength="662.98" waitingTime="0.00" waitingCount="0" stopTime="0.00" timeLoss="8.11" rerouteNo="0" devices="tripinfo_random49" vType="type3" speedFactor="0.85" vaporized=""/>
    <tripinfo id="random67" depart="123.00" departLane="gneE0_0" departPos="5.10" departSpeed="0.00" departDelay="61.00" arrival="198.00" arrivalLane="gneE0_1" arrivalPos="671.08" arrivalSpeed="10.97" duration="75.00" routeLength="665.98" waitingTime="0.00" waitingCount="0" stopTime="0.00" timeLoss="13.62" rerouteNo="0" devices="tripinfo_random67" vType="type1" speedFactor="0.91" vaporized=""/>
    <tripinfo id="random21" depart="99.00" departLane="gneE3_0" departPos="5.10" departSpeed="0.00" departDelay="45.00" arrival="200.00" arrivalLane="gneE4_0" arrivalPos="431.40" arrivalSpeed="13.42" duration="101.00" routeLength="775.51" waitingTime="0.00" waitingCount="0" stopTime="0.00" timeLoss="48.62" rerouteNo="0" devices="tripinfo_random21" vType="type2" speedFactor="1.01" vaporized=""/>
    <tripinfo id="random46" depart="110.00" departLane="gneE1_0" departPos="5.10" departSpeed="0.00" departDelay="52.00" arrival="200.00" arrivalLane="gneE2_0" arrivalPos="491.30" arrivalSpeed="10.19" duration="90.00" routeLength="701.88" waitingTime="0.00" waitingCount="0" stopTime="0.00" timeLoss="31.09" rerouteNo="0" devices="tripinfo_random46" vType="type1" speedFactor="1.00" vaporized=""/>
    <tripinfo id="random24" depart="102.00" departLane="gneE3_0" departPos="5.10" departSpeed="0.00" departDelay="48.00" arrival="202.00" arrivalLane="gneE4_0" arrivalPos="431.40" arrivalSpeed="11.24" duration="100.00" routeLength="775.51" waitingTime="0.00" waitingCount="0" stopTime="0.00" timeLoss="34.85" rerouteNo="0" devices="tripinfo_random24" vType="type1" speedFactor="0.83" vaporized=""/>
    <tripinfo id="random74" depart="134.00" departLane="gneE0_0" departPos="5.10" departSpeed="0.00" departDelay="70.00" arrival="202.00" arrivalLane="gneE0_0" arrivalPos="671.08" arrivalSpeed="11.10" duration="68.00" routeLength="665.98" waitingTime="0.00" waitingCount="0" stopTime="0.00" timeLoss="9.41" rerouteNo="0" devices="tripinfo_random74" vType="type1" speedFactor="0.96" vaporized=""/>
    <tripinfo id="random25" depart="107.00" departLane="gneE3_0" departPos="5.10" departSpeed="0.00" departDelay="53.00" arrival="204.00" arrivalLane="gneE4_0" arrivalPos="431.40" arrivalSpeed="12.78" duration="97.00" routeLength="775.51" waitingTime="0.00" waitingCount="0" stopTime="0.00" timeLoss="37.05" rerouteNo="0" devices="tripinfo_random25" vType="type2" speedFactor="0.87" vaporized=""/>
    <tripinfo id="random26" depart="111.00" departLane="gneE3_0" departPos="5.10" departSpeed="0.00" departDelay="57.00" arrival="206.00" arrivalLane="gneE4_0" arrivalPos="431.40" arrivalSpeed="11.41" duration="95.00" routeLength="775.51" waitingTime="0.00" waitingCount="0" stopTime="0.00" timeLoss="29.39" rerouteNo="0" devices="tripinfo_random26" vType="type1" speedFactor="0.92" vaporized=""/>
    <tripinfo id="random75" depart="139.00" departLane="gneE0_0" departPos="5.10" departSpeed="0.00" departDelay="75.00" arrival="206.00" arrivalLane="gneE0_0" arrivalPos="671.08" arrivalSpeed="11.69" duration="67.00" routeLength="665.98" waitingTime="0.00" waitingCount="0" stopTime="0.00" timeLoss="9.92" rerouteNo="0" devices="tripinfo_random75" vType="type1" speedFactor="0.98" vaporized=""/>
    <tripinfo id="random27" depart="116.00" departLane="gneE3_0" departPos="5.10" departSpeed="0.00" departDelay="62.00" arrival="208.00" arrivalLane="gneE4_0" arrivalPos="431.40" arrivalSpeed="11.20" duration="92.00" routeLength="775.51" waitingTime="0.00" waitingCount="0" stopTime="0.00" timeLoss="26.99" rerouteNo="0" devices="tripinfo_random27" vType="type1" speedFactor="0.95" vaporized=""/>
    <tripinfo id="random28" depart="121.00" departLane="gneE3_0" departPos="5.10" departSpeed="0.00" departDelay="67.00" arrival="210.00" arrivalLane="gneE4_0" arrivalPos="431.40" arrivalSpeed="11.17" duration="89.00" routeLength="775.51" waitingTime="0.00" waitingCount="0" stopTime="0.00" timeLoss="23.89" rerouteNo="0" devices="tripinfo_random28" vType="type1" speedFactor="1.13" vaporized=""/>
    <tripinfo id="random76" depart="144.00" departLane="gneE0_0" departPos="5.10" departSpeed="0.00" departDelay="80.00" arrival="211.00" arrivalLane="gneE0_0" arrivalPos="671.08" arrivalSpeed="11.75" duration="67.00" routeLength="665.98" waitingTime="0.00" waitingCount="0" stopTime="0.00" timeLoss="10.84" rerouteNo="0" devices="tripinfo_random76" vType="type1" speedFactor="1.03" vaporized=""/>
    <tripinfo id="random35" depart="126.00" departLane="gneE3_0" departPos="5.10" departSpeed="0.00" departDelay="70.00" arrival="212.00" arrivalLane="gneE4_0" arrivalPos="431.40" arrivalSpeed="14.30" duration="86.00" routeLength="775.51" waitingTime="0.00" waitingCount="0" stopTime="0.00" timeLoss="34.67" rerouteNo="0" devices="tripinfo_random35" vType="type2" speedFactor="1.02" vaporized=""/>
    <tripinfo id="random37" depart="129.00" departLane="gneE3_0" departPos="5.10" departSpeed="0.00" departDelay="73.00" arrival="214.00" arrivalLane="gneE4_0" arrivalPos="431.40" arrivalSpeed="11.82" duration="85.00" routeLength="775.51" waitingTime="0.00" waitingCount="0" stopTime="0.00" timeLoss="19.15" rerouteNo="0" devices="tripinfo_random37" vType="type1" speedFactor="1.18" vaporized=""/>
    <tripinfo id="random47" depart="116.00" departLane="gneE1_0" departPos="8.10" departSpeed="0.00" departDelay="58.00" arrival="215.00" arrivalLane="gneE2_0" arrivalPos="491.30" arrivalSpeed="7.65" duration="99.00" routeLength="698.88" waitingTime="0.00" waitingCount="0" stopTime="0.00" timeLoss="10.82" rerouteNo="0" devices="tripinfo_random47" vType="type3" speedFactor="0.90" vaporized=""/>
    <tripinfo id="random39" depart="134.00" departLane="gneE3_0" departPos="5.10" departSpeed="0.00" departDelay="78.00" arrival="216.00" arrivalLane="gneE4_0" arrivalPos="431.40" arrivalSpeed="13.34" duration="82.00" routeLength="775.51" waitingTime="0.00" waitingCount="0" stopTime="0.00" timeLoss="23.40" rerouteNo="0" devices="tripinfo_random39" vType="type2" speedFactor="0.90" vaporized=""/>
    <tripinfo id="19" depart="149.00" departLane="gneE0_0" departPos="5.10" departSpeed="0.00" departDelay="85.49" arrival="216.00" arrivalLane="gneE0_0" arrivalPos="671.08" arrivalSpeed="11.83" duration="67.00" routeLength="665.98" waitingTime="0.00" waitingCount="0" stopTime="0.00" timeLoss="10.71" rerouteNo="0" devices="tripinfo_19" vType="type1" speedFactor="1.11" vaporized=""/>
    <tripinfo id="random52" depart="122.00" departLane="gneE1_0" departPos="8.10" departSpeed="0.00" departDelay="62.00" arrival="219.00" arrivalLane="gneE2_0" arrivalPos="491.30" arrivalSpeed="7.93" duration="97.00" routeLength="698.88" waitingTime="0.00" waitingCount="0" stopTime="0.00" timeLoss="9.13" rerouteNo="0" devices="tripinfo_random52" vType="type3" speedFactor="1.02" vaporized=""/>
    <tripinfo id="random54" depart="127.00" departLane="gneE1_0" departPos="5.10" departSpeed="0.00" departDelay="67.00" arrival="221.00" arrivalLane="gneE2_0" arrivalPos="491.30" arrivalSpeed="9.46" duration="94.00" routeLength="701.88" waitingTime="0.00" waitingCount="0" stopTime="0.00" timeLoss="35.21" rerouteNo="0" devices="tripinfo_random54" vType="type1" speedFactor="1.00" vaporized=""/>
    <tripinfo id="3" depart="154.00" departLane="gneE0_0" departPos="5.10" departSpeed="0.00" departDelay="89.77" arrival="221.00" arrivalLane="gneE0_0" arrivalPos="671.08" arrivalSpeed="11.74" duration="67.00" routeLength="665.98" waitingTime="0.00" waitingCount="0" stopTime="0.00" timeLoss="11.27" rerouteNo="0" devices="tripinfo_3" vType="type1" speedFactor="1.04" vaporized=""/>
    <tripinfo id="random57" depart="132.00" departLane="gneE1_0" departPos="5.10" departSpeed="0.00" departDelay="72.00" arrival="223.00" arrivalLane="gneE2_0" arrivalPos="491.30" arrivalSpeed="9.38" duration="91.00" routeLength="701.88" waitingTime="0.00" waitingCount="0" stopTime="0.00" timeLoss="32.18" rerouteNo="0" devices="tripinfo_random57" vType="type1" speedFactor="1.14" vaporized=""/>
    <tripinfo id="random80" depart="160.00" departLane="gneE0_0" departPos="5.10" departSpeed="0.00" departDelay="94.00" arrival="226.00" arrivalLane="gneE0_0" arrivalPos="671.08" arrivalSpeed="11.70" duration="66.00" routeLength="665.98" waitingTime="0.00" waitingCount="0" stopTime="0.00" timeLoss="10.11" rerouteNo="0" devices="tripinfo_random80" vType="type1" speedFactor="1.03" vaporized=""/>
    <tripinfo id="random89" depart="171.00" departLane="gneE0_0" departPos="5.10" departSpeed="0.00" departDelay="105.00" arrival="235.00" arrivalLane="gneE0_0" arrivalPos="671.08" arrivalSpeed="10.29" duration="64.00" routeLength="665.98" waitingTime="0.00" waitingCount="0" stopTime="0.00" timeLoss="9.18" rerouteNo="0" devices="tripinfo_random89" vType="type2" speedFactor="1.02" vaporized=""/>
    <tripinfo id="random62" depart="138.00" departLane="gneE1_0" departPos="8.10" departSpeed="0.00" departDelay="76.00" arrival="236.00" arrivalLane="gneE2_0" arrivalPos="491.30" arrivalSpeed="7.60" duration="98.00" routeLength="698.88" waitingTime="0.00" waitingCount="0" stopTime="0.00" timeLoss="9.83" rerouteNo="0" devices="tripinfo_random62" vType="type3" speedFactor="1.02" vaporized=""/>