<?xml version="1.0" encoding="UTF-8"?>

<!-- generated on 2021-06-23 23:57:05 by Eclipse SUMO GUI Version 1.9.2
<configuration xmlns:xsi="http://www.w3.org/2001/XMLSchema-instance" xsi:noNamespaceSchemaLocation="http://sumo.dlr.de/xsd/sumoConfiguration.xsd">

    <input>
        <net-file value="SUMO/new.net.xml"/>
        <route-files value="SUMO/routes_clear.xml"/>
    </input>

    <output>
        <tripinfo-output value="SUMO/tripinfo.xml"/>
    </output>

    <time>
        <begin value="0"/>
        <end value="3600"/>
    </time>

    <processing>
        <time-to-teleport value="-1"/>
    </processing>

    <report>
        <xml-validation value="never"/>
        <xml-validation.routes value="never"/>
        <duration-log.disable value="true"/>
        <no-step-log value="true"/>
    </report>

    <gui_only>
        <gui-settings-file value="SUMO/gui-settings.cfg"/>
        <start value="true"/>
    </gui_only>

</configuration>
-->

<tripinfos xmlns:xsi="http://www.w3.org/2001/XMLSchema-instance" xsi:noNamespaceSchemaLocation="http://sumo.dlr.de/xsd/tripinfo_file.xsd">
    <tripinfo id="random1" depart="50.00" departLane="gneE3_0" departPos="5.10" departSpeed="0.00" departDelay="0.00" arrival="115.00" arrivalLane="gneE4_0" arrivalPos="431.40" arrivalSpeed="11.88" duration="65.00" routeLength="775.51" waitingTime="0.00" waitingCount="0" stopTime="0.00" timeLoss="8.88" rerouteNo="0" devices="tripinfo_random1" vType="type2" speedFactor="0.94" vaporized=""/>
    <tripinfo id="random6" depart="55.00" departLane="gneE0_0" departPos="5.10" departSpeed="0.00" departDelay="5.00" arrival="122.00" arrivalLane="gneE0_0" arrivalPos="671.08" arrivalSpeed="11.93" duration="67.00" routeLength="665.98" waitingTime="0.00" waitingCount="0" stopTime="0.00" timeLoss="10.83" rerouteNo="0" devices="tripinfo_random6" vType="type1" speedFactor="1.05" vaporized=""/>
    <tripinfo id="random5" depart="50.00" departLane="gneE0_0" departPos="5.10" departSpeed="0.00" departDelay="0.00" arrival="127.00" arrivalLane="gneE0_0" arrivalPos="671.08" arrivalSpeed="9.61" duration="77.00" routeLength="665.98" waitingTime="0.00" waitingCount="0" stopTime="0.00" timeLoss="9.40" rerouteNo="0" devices="tripinfo_random5" vType="type1" speedFactor="0.83" vaporized=""/>
    <tripinfo id="random14" depart="66.00" departLane="gneE0_0" departPos="5.10" departSpeed="0.00" departDelay="14.00" arrival="131.00" arrivalLane="gneE0_0" arrivalPos="671.08" arrivalSpeed="11.33" duration="65.00" routeLength="665.98" waitingTime="0.00" waitingCount="0" stopTime="0.00" timeLoss="8.80" rerouteNo="0" devices="tripinfo_random14" vType="type2" speedFactor="0.99" vaporized=""/>
    <tripinfo id="random20" depart="73.00" departLane="gneE0_0" departPos="5.10" departSpeed="0.00" departDelay="19.00" arrival="136.00" arrivalLane="gneE0_0" arrivalPos="671.08" arrivalSpeed="11.40" duration="63.00" routeLength="665.98" waitingTime="0.00" waitingCount="0" stopTime="0.00" timeLoss="7.59" rerouteNo="0" devices="tripinfo_random20" vType="type2" speedFactor="1.02" vaporized=""/>
    <tripinfo id="random15" depart="68.00" departLane="gneE0_0" departPos="5.10" departSpeed="0.00" departDelay="16.00" arrival="139.00" arrivalLane="gneE0_0" arrivalPos="671.08" arrivalSpeed="10.93" duration="71.00" routeLength="665.98" waitingTime="0.00" waitingCount="0" stopTime="0.00" timeLoss="10.39" rerouteNo="0" devices="tripinfo_random15" vType="type1" speedFactor="0.93" vaporized=""/>
    <tripinfo id="random30" depart="86.00" departLane="gneE0_0" departPos="5.10" departSpeed="0.00" departDelay="30.00" arrival="139.00" arrivalLane="gneE0_1" arrivalPos="671.08" arrivalSpeed="13.69" duration="53.00" routeLength="665.98" waitingTime="0.00" waitingCount="0" stopTime="0.00" timeLoss="5.60" rerouteNo="0" devices="tripinfo_random30" vType="type2" speedFactor="1.18" vaporized=""/>
    <tripinfo id="random21" depart="74.00" departLane="gneE0_0" departPos="5.10" departSpeed="0.00" departDelay="20.00" arrival="143.00" arrivalLane="gneE0_0" arrivalPos="671.08" arrivalSpeed="11.80" duration="69.00" routeLength="665.98" waitingTime="0.00" waitingCount="0" stopTime="0.00" timeLoss="13.36" rerouteNo="0" devices="tripinfo_random21" vType="type1" speedFactor="1.01" vaporized=""/>
    <tripinfo id="random0" depart="50.00" departLane="gneE1_0" departPos="8.10" departSpeed="0.00" departDelay="0.00" arrival="148.00" arrivalLane="gneE2_0" arrivalPos="491.30" arrivalSpeed="8.00" duration="98.00" routeLength="698.88" waitingTime="0.00" waitingCount="0" stopTime="0.00" timeLoss="10.31" rerouteNo="0" devices="tripinfo_random0" vType="type3" speedFactor="1.06" vaporized=""/>
    <tripinfo id="random27" depart="81.00" departLane="gneE0_0" departPos="5.10" departSpeed="0.00" departDelay="27.00" arrival="149.00" arrivalLane="gneE0_1" arrivalPos="671.08" arrivalSpeed="11.26" duration="68.00" routeLength="665.98" waitingTime="0.00" waitingCount="0" stopTime="0.00" timeLoss="9.21" rerouteNo="0" devices="tripinfo_random27" vType="type1" speedFactor="0.95" vaporized=""/>
    <tripinfo id="random2" depart="55.00" departLane="gneE1_0" departPos="5.10" departSpeed="0.00" departDelay="5.00" arrival="150.00" arrivalLane="gneE2_0" arrivalPos="491.30" arrivalSpeed="9.19" duration="95.00" routeLength="701.88" waitingTime="0.00" waitingCount="0" stopTime="0.00" timeLoss="36.38" rerouteNo="0" devices="tripinfo_random2" vType="type1" speedFactor="1.01" vaporized=""/>
    <tripinfo id="random7" depart="60.00" departLane="gneE1_0" departPos="5.10" departSpeed="0.00" departDelay="10.00" arrival="152.00" arrivalLane="gneE2_0" arrivalPos="491.30" arrivalSpeed="9.69" duration="92.00" routeLength="701.88" waitingTime="1.00" waitingCount="1" stopTime="0.00" timeLoss="33.22" rerouteNo="0" devices="tripinfo_random7" vType="type1" speedFactor="0.89" vaporized=""/>
    <tripinfo id="random10" depart="61.00" departLane="gneE0_0" departPos="8.10" departSpeed="0.00" departDelay="9.00" arrival="152.00" arrivalLane="gneE0_0" arrivalPos="671.08" arrivalSpeed="8.00" duration="91.00" routeLength="662.98" waitingTime="0.00" waitingCount="0" stopTime="0.00" timeLoss="7.66" rerouteNo="0" devices="tripinfo_random10" vType="type3" speedFactor="1.09" vaporized=""/>
    <tripinfo id="random25" depart="79.00" departLane="gneE0_0" departPos="5.10" departSpeed="0.00" departDelay="25.00" arrival="153.00" arrivalLane="gneE0_1" arrivalPos="671.08" arrivalSpeed="10.21" duration="74.00" routeLength="665.98" waitingTime="0.00" waitingCount="0" stopTime="0.00" timeLoss="10.10" rerouteNo="0" devices="tripinfo_random25" vType="type2" speedFactor="0.87" vaporized=""/>
    <tripinfo id="random32" depart="87.00" departLane="gneE0_0" departPos="5.10" departSpeed="0.00" departDelay="31.00" arrival="154.00" arrivalLane="gneE0_0" arrivalPos="671.08" arrivalSpeed="9.49" duration="67.00" routeLength="665.98" waitingTime="0.00" waitingCount="0" stopTime="0.00" timeLoss="11.26" rerouteNo="0" devices="tripinfo_random32" vType="type1" speedFactor="1.01" vaporized=""/>
    <tripinfo id="random36" depart="92.00" departLane="gneE0_0" departPos="5.10" departSpeed="0.00" departDelay="36.00" arrival="158.00" arrivalLane="gneE0_0" arrivalPos="671.08" arrivalSpeed="9.74" duration="66.00" routeLength="665.98" waitingTime="0.00" waitingCount="0" stopTime="0.00" timeLoss="8.40" rerouteNo="0" devices="tripinfo_random36" vType="type2" speedFactor="0.97" vaporized=""/>
    <tripinfo id="random3" depart="52.00" departLane="gneE3_0" departPos="8.10" departSpeed="0.00" departDelay="2.00" arrival="159.00" arrivalLane="gneE4_0" arrivalPos="431.40" arrivalSpeed="7.96" duration="107.00" routeLength="772.51" waitingTime="0.00" waitingCount="0" stopTime="0.00" timeLoss="9.85" rerouteNo="0" devices="tripinfo_random3" vType="type3" speedFactor="1.08" vaporized=""/>
    <tripinfo id="random18" depart="67.00" departLane="gneE1_0" departPos="8.10" departSpeed="0.00" departDelay="15.00" arrival="165.00" arrivalLane="gneE2_0" arrivalPos="491.30" arrivalSpeed="7.78" duration="98.00" routeLength="698.88" waitingTime="0.00" waitingCount="0" stopTime="0.00" timeLoss="10.59" rerouteNo="0" devices="tripinfo_random18" vType="type3" speedFactor="0.94" vaporized=""/>
    <tripinfo id="random40" depart="98.00" departLane="gneE0_0" departPos="5.10" departSpeed="0.00" departDelay="40.00" arrival="165.00" arrivalLane="gneE0_1" arrivalPos="671.08" arrivalSpeed="11.60" duration="67.00" routeLength="665.98" waitingTime="0.00" waitingCount="0" stopTime="0.00" timeLoss="10.82" rerouteNo="0" devices="tripinfo_random40" vType="type1" speedFactor="1.03" vaporized=""/>
    <tripinfo id="random43" depart="103.00" departLane="gneE0_0" departPos="5.10" departSpeed="0.00" departDelay="45.00" arrival="165.00" arrivalLane="gneE0_0" arrivalPos="671.08" arrivalSpeed="10.55" duration="62.00" routeLength="665.98" waitingTime="0.00" waitingCount="0" stopTime="0.00" timeLoss="7.80" rerouteNo="0" devices="tripinfo_random43" vType="type2" speedFactor="1.04" vaporized=""/>
    <tripinfo id="random4" depart="58.00" departLane="gneE3_0" departPos="8.10" departSpeed="0.00" departDelay="8.00" arrival="166.00" arrivalLane="gneE4_0" arrivalPos="431.40" arrivalSpeed="7.75" duration="108.00" routeLength="772.51" waitingTime="0.00" waitingCount="0" stopTime="0.00" timeLoss="10.90" rerouteNo="0" devices="tripinfo_random4" vType="type3" speedFactor="1.03" vaporized=""/>
    <tripinfo id="random8" depart="63.00" departLane="gneE3_0" departPos="5.10" departSpeed="0.00" departDelay="13.00" arrival="168.00" arrivalLane="gneE4_0" arrivalPos="431.40" arrivalSpeed="8.68" duration="105.00" routeLength="775.51" waitingTime="0.00" waitingCount="0" stopTime="0.00" timeLoss="39.54" rerouteNo="0" devices="tripinfo_random8" vType="type1" speedFactor="0.94" vaporized=""/>
    <tripinfo id="random26" depart="73.00" departLane="gneE1_0" departPos="8.10" departSpeed="0.00" departDelay="19.00" arrival="171.00" arrivalLane="gneE2_0" arrivalPos="491.30" arrivalSpeed="7.62" duration="98.00" routeLength="698.88" waitingTime="0.00" waitingCount="0" stopTime="0.00" timeLoss="10.07" rerouteNo="0" devices="tripinfo_random26" vType="type3" speedFactor="0.92" vaporized=""/>
    <tripinfo id="random51" depart="104.00" departLane="gneE0_0" departPos="5.10" departSpeed="0.00" departDelay="44.00" arrival="171.00" arrivalLane="gneE0_1" arrivalPos="671.08" arrivalSpeed="11.80" duration="67.00" routeLength="665.98" waitingTime="0.00" waitingCount="0" stopTime="0.00" timeLoss="11.48" rerouteNo="0" devices="tripinfo_random51" vType="type1" speedFactor="1.17" vaporized=""/>
    <tripinfo id="random52" depart="109.00" departLane="gneE0_0" departPos="5.10" departSpeed="0.00" departDelay="49.00" arrival="172.00" arrivalLane="gneE0_0" arrivalPos="671.08" arrivalSpeed="11.79" duration="63.00" routeLength="665.98" waitingTime="0.00" waitingCount="0" stopTime="0.00" timeLoss="7.58" rerouteNo="0" devices="tripinfo_random52" vType="type2" speedFactor="1.02" vaporized=""/>
    <tripinfo id="random28" depart="78.00" departLane="gneE1_0" departPos="5.10" departSpeed="0.00" departDelay="24.00" arrival="173.00" arrivalLane="gneE2_0" arrivalPos="491.30" arrivalSpeed="13.91" duration="95.00" routeLength="701.88" waitingTime="0.00" waitingCount="0" stopTime="0.00" timeLoss="49.14" rerouteNo="0" devices="tripinfo_random28" vType="type2" speedFactor="1.13" vaporized=""/>
    <tripinfo id="random31" depart="82.00" departLane="gneE1_0" departPos="5.10" departSpeed="0.00" departDelay="26.00" arrival="175.00" arrivalLane="gneE2_0" arrivalPos="491.30" arrivalSpeed="14.31" duration="93.00" routeLength="701.88" waitingTime="0.00" waitingCount="0" stopTime="0.00" timeLoss="48.47" rerouteNo="0" devices="tripinfo_random31" vType="type2" speedFactor="1.15" vaporized=""/>
    <tripinfo id="random33" depart="84.00" departLane="gneE1_0" departPos="5.10" departSpeed="0.00" departDelay="28.00" arrival="176.00" arrivalLane="gneE2_0" arrivalPos="491.30" arrivalSpeed="14.84" duration="92.00" routeLength="701.88" waitingTime="0.00" waitingCount="0" stopTime="0.00" timeLoss="48.74" rerouteNo="0" devices="tripinfo_random33" vType="type2" speedFactor="1.17" vaporized=""/>
    <tripinfo id="random9" depart="70.00" departLane="gneE3_0" departPos="8.10" departSpeed="0.00" departDelay="20.00" arrival="179.00" arrivalLane="gneE4_0" arrivalPos="431.40" arrivalSpeed="7.97" duration="109.00" routeLength="772.51" waitingTime="0.00" waitingCount="0" stopTime="0.00" timeLoss="11.49" rerouteNo="0" devices="tripinfo_random9" vType="type3" speedFactor="0.86" vaporized=""/>
    <tripinfo id="random34" depart="87.00" departLane="gneE1_0" departPos="5.10" departSpeed="0.00" departDelay="31.00" arrival="179.00" arrivalLane="gneE2_0" arrivalPos="491.30" arrivalSpeed="10.91" duration="92.00" routeLength="701.88" waitingTime="0.00" waitingCount="0" stopTime="0.00" timeLoss="33.44" rerouteNo="0" devices="tripinfo_random34" vType="type1" speedFactor="0.99" vaporized=""/>
    <tripinfo id="random11" depart="75.00" departLane="gneE3_0" departPos="5.10" departSpeed="0.00" departDelay="23.00" arrival="181.00" arrivalLane="gneE4_0" arrivalPos="431.40" arrivalSpeed="13.21" duration="106.00" routeLength="775.51" waitingTime="0.00" waitingCount="0" stopTime="0.00" timeLoss="54.30" rerouteNo="0" devices="tripinfo_random11" vType="type2" speedFactor="1.03" vaporized=""/>
    <tripinfo id="random38" depart="92.00" departLane="gneE1_0" departPos="5.10" departSpeed="0.00" departDelay="36.00" arrival="181.00" arrivalLane="gneE2_0" arrivalPos="491.30" arrivalSpeed="11.23" duration="89.00" routeLength="701.88" waitingTime="0.00" waitingCount="0" stopTime="0.00" timeLoss="30.23" rerouteNo="0" devices="tripinfo_random38" vType="type1" speedFactor="1.10" vaporized=""/>
    <tripinfo id="random56" depart="110.00" departLane="gneE0_0" departPos="5.10" departSpeed="0.00" departDelay="50.00" arrival="182.00" arrivalLane="gneE0_0" arrivalPos="671.08" arrivalSpeed="9.72" duration="72.00" routeLength="665.98" waitingTime="0.00" waitingCount="0" stopTime="0.00" timeLoss="10.03" rerouteNo="0" devices="tripinfo_random56" vType="type2" speedFactor="0.90" vaporized=""/>
    <tripinfo id="random12" depart="79.00" departLane="gneE3_0" departPos="5.10" departSpeed="0.00" departDelay="27.00" arrival="183.00" arrivalLane="gneE4_0" arrivalPos="431.40" arrivalSpeed="9.31" duration="104.00" routeLength="775.51" waitingTime="0.00" waitingCount="0" stopTime="0.00" timeLoss="39.12" rerouteNo="0" devices="tripinfo_random12" vType="type1" speedFactor="1.05" vaporized=""/>
    <tripinfo id="random41" depart="97.00" departLane="gneE1_0" departPos="5.10" departSpeed="0.00" departDelay="39.00" arrival="183.00" arrivalLane="gneE2_0" arrivalPos="491.30" arrivalSpeed="11.81" duration="86.00" routeLength="701.88" waitingTime="0.00" waitingCount="0" stopTime="0.00" timeLoss="26.94" rerouteNo="0" devices="tripinfo_random41" vType="type1" speedFactor="0.96" vaporized=""/>
    <tripinfo id="random13" depart="84.00" departLane="gneE3_0" departPos="5.10" departSpeed="0.00" departDelay="32.00" arrival="185.00" arrivalLane="gneE4_0" arrivalPos="431.40" arrivalSpeed="9.60" duration="101.00" routeLength="775.51" waitingTime="0.00" waitingCount="0" stopTime="0.00" timeLoss="36.01" rerouteNo="0" devices="tripinfo_random13" vType="type1" speedFactor="1.12" vaporized=""/>
    <tripinfo id="random37" depart="93.00" departLane="gneE0_0" departPos="8.10" departSpeed="0.00" departDelay="37.00" arrival="185.00" arrivalLane="gneE0_0" arrivalPos="671.08" arrivalSpeed="7.80" duration="92.00" routeLength="662.98" waitingTime="0.00" waitingCount="0" stopTime="0.00" timeLoss="8.67" rerouteNo="0" devices="tripinfo_random37" vType="type3" speedFactor="1.18" vaporized=""/>
    <tripinfo id="random64" depart="118.00" departLane="gneE0_0" departPos="5.10" departSpeed="0.00" departDelay="56.00" arrival="186.00" arrivalLane="gneE0_1" arrivalPos="671.08" arrivalSpeed="10.69" duration="68.00" routeLength="665.98" waitingTime="0.00" waitingCount="0" stopTime="0.00" timeLoss="8.54" rerouteNo="0" devices="tripinfo_random64" vType="type2" speedFactor="0.94" vaporized=""/>
    <tripinfo id="random66" depart="119.00" departLane="gneE0_0" departPos="5.10" departSpeed="0.00" departDelay="57.00" arrival="191.00" arrivalLane="gneE0_0" arrivalPos="671.08" arrivalSpeed="10.58" duration="72.00" routeLength="665.98" waitingTime="0.00" waitingCount="0" stopTime="0.00" timeLoss="10.79" rerouteNo="0" devices="tripinfo_random66" vType="type1" speedFactor="0.91" vaporized=""/>
    <tripinfo id="random76" depart="130.00" departLane="gneE0_0" departPos="5.10" departSpeed="0.00" departDelay="66.00" arrival="196.00" arrivalLane="gneE0_0" arrivalPos="671.08" arrivalSpeed="11.76" duration="66.00" routeLength="665.98" waitingTime="0.00" waitingCount="0" stopTime="0.00" timeLoss="10.17" rerouteNo="0" devices="tripinfo_random76" vType="type1" speedFactor="1.03" vaporized=""/>
    <tripinfo id="random16" depart="90.00" departLane="gneE3_0" departPos="8.10" departSpeed="0.00" departDelay="38.00" arrival="199.00" arrivalLane="gneE4_0" arrivalPos="431.40" arrivalSpeed="7.97" duration="109.00" routeLength="772.51" waitingTime="0.00" waitingCount="0" stopTime="0.00" timeLoss="11.65" rerouteNo="0" devices="tripinfo_random16" vType="type3" speedFactor="0.88" vaporized=""/>
    <tripinfo id="random80" depart="140.00" departLane="gneE0_0" departPos="5.10" departSpeed="0.00" departDelay="74.00" arrival="200.00" arrivalLane="gneE0_0" arrivalPos="671.08" arrivalSpeed="11.86" duration="60.00" routeLength="665.98" waitingTime="0.00" waitingCount="0" stopTime="0.00" timeLoss="5.96" rerouteNo="0" devices="tripinfo_random80" vType="type2" speedFactor="1.03" vaporized=""/>
    <tripinfo id="random42" depart="103.00" departLane="gneE1_0" departPos="8.10" departSpeed="0.00" departDelay="45.00" arrival="201.00" arrivalLane="gneE2_0" arrivalPos="491.30" arrivalSpeed="7.93" duration="98.00" routeLength="698.88" waitingTime="0.00" waitingCount="0" stopTime="0.00" timeLoss="9.37" rerouteNo="0" devices="tripinfo_random42" vType="type3" speedFactor="1.09" vaporized=""/>
    <tripinfo id="random17" depart="96.00" departLane="gneE3_0" departPos="8.10" departSpeed="0.00" departDelay="44.00" arrival="203.00" arrivalLane="gneE4_0" arrivalPos="431.40" arrivalSpeed="7.95" duration="107.00" routeLength="772.51" waitingTime="0.00" waitingCount="0" stopTime="0.00" timeLoss="9.97" rerouteNo="0" devices="tripinfo_random17" vType="type3" speedFactor="0.94" vaporized=""/>
    <tripinfo id="random47" depart="108.00" departLane="gneE1_0" departPos="5.10" departSpeed="0.00" departDelay="50.00" arrival="203.00" arrivalLane="gneE2_0" arrivalPos="491.30" arrivalSpeed="9.17" duration="95.00" routeLength="701.88" waitingTime="0.00" waitingCount="0" stopTime="0.00" timeLoss="36.02" rerouteNo="0" devices="tripinfo_random47" vType="type1" speedFactor="0.90" vaporized=""/>
    <tripinfo id="random60" depart="113.00" departLane="gneE0_0" departPos="8.10" departSpeed="0.00" departDelay="51.00" arrival="204.00" arrivalLane="gneE0_0" arrivalPos="671.08" arrivalSpeed="7.83" duration="91.00" routeLength="662.98" waitingTime="0.00" waitingCount="0" stopTime="0.00" timeLoss="7.96" rerouteNo="0" devices="tripinfo_random60" vType="type3" speedFactor="1.08" vaporized=""/>
    <tripinfo id="random19" depart="101.00" departLane="gneE3_0" departPos="5.10" departSpeed="0.00" departDelay="49.00" arrival="205.00" arrivalLane="gneE4_0" arrivalPos="431.40" arrivalSpeed="14.48" duration="104.00" routeLength="775.51" waitingTime="0.00" waitingCount="0" stopTime="0.00" timeLoss="58.87" rerouteNo="0" devices="tripinfo_random19" vType="type2" speedFactor="1.16" vaporized=""/>
    <tripinfo id="random48" depart="113.00" departLane="gneE1_0" departPos="5.10" departSpeed="0.00" departDelay="55.00" arrival="205.00" arrivalLane="gneE2_0" arrivalPos="491.30" arrivalSpeed="9.72" duration="92.00" routeLength="701.88" waitingTime="0.00" waitingCount="0" stopTime="0.00" timeLoss="32.87" rerouteNo="0" devices="tripinfo_random48" vType="type1" speedFactor="0.88" vaporized=""/>
    <tripinfo id="random81" depart="141.00" departLane="gneE0_0" departPos="5.10" departSpeed="0.00" departDelay="75.00" arrival="205.00" arrivalLane="gneE0_0" arrivalPos="671.08" arrivalSpeed="11.94" duration="64.00" routeLength="665.98" waitingTime="0.00" waitingCount="0" stopTime="0.00" timeLoss="7.48" rerouteNo="0" devices="tripinfo_random81" vType="type2" speedFactor="1.00" vaporized=""/>
    <tripinfo id="random78" depart="135.00" departLane="gneE0_0" departPos="5.10" departSpeed="0.00" departDelay="71.00" arrival="206.00" arrivalLane="gneE0_1" arrivalPos="671.08" arrivalSpeed="11.85" duration="71.00" routeLength="665.98" waitingTime="0.00" waitingCount="0" stopTime="0.00" timeLoss="15.24" rerouteNo="0" devices="tripinfo_random78" vType="type1" speedFactor="1.01" vaporized=""/>
    <tripinfo id="random22" depart="104.00" departLane="gneE3_0" departPos="5.10" departSpeed="0.00" departDelay="50.00" arrival="207.00" arrivalLane="gneE4_0" arrivalPos="431.40" arrivalSpeed="12.45" duration="103.00" routeLength="775.51" waitingTime="0.00" waitingCount="0" stopTime="0.00" timeLoss="48.94" rerouteNo="0" devices="tripinfo_random22" vType="type2" speedFactor="0.98" vaporized=""/>
    <tripinfo id="random23" depart="107.00" departLane="gneE3_0" departPos="5.10" departSpeed="0.00" departDelay="53.00" arrival="209.00" arrivalLane="gneE4_0" arrivalPos="431.40" arrivalSpeed="11.30" duration="102.00" routeLength="775.51" waitingTime="0.00" waitingCount="0" stopTime="0.00" timeLoss="36.95" rerouteNo="0" devices="tripinfo_random23" vType="type1" speedFactor="0.89" vaporized=""/>
    <tripinfo id="random68" depart="125.00" departLane="gneE0_0" departPos="8.10" departSpeed="0.00" departDelay="63.00" arrival="216.00" arrivalLane="gneE0_0" arrivalPos="671.08" arrivalSpeed="7.93" duration="91.00" routeLength="662.98" waitingTime="0.00" waitingCount="0" stopTime="0.00" timeLoss="7.72" rerouteNo="0" devices="tripinfo_random68" vType="type3" speedFactor="1.04" vaporized=""/>
    <tripinfo id="random85" depart="149.00" departLane="gneE0_0" departPos="5.10" departSpeed="0.00" departDelay="83.00" arrival="217.00" arrivalLane="gneE0_1" arrivalPos="671.08" arrivalSpeed="11.62" duration="68.00" routeLength="665.98" waitingTime="0.00" waitingCount="0" stopTime="0.00" timeLoss="10.30" rerouteNo="0" devices="tripinfo_random85" vType="type1" speedFactor="0.98" vaporized=""/>
    <tripinfo id="random50" depart="119.00" departLane="gneE1_0" departPos="8.10" departSpeed="0.00" departDelay="59.00" arrival="218.00" arrivalLane="gneE2_0" arrivalPos="491.30" arrivalSpeed="7.81" duration="99.00" routeLength="698.88" waitingTime="0.00" waitingCount="0" stopTime="0.00" timeLoss="11.19" rerouteNo="0" devices="tripinfo_random50" vType="type3" speedFactor="0.85" vaporized=""/>
    <tripinfo id="random53" depart="124.00" departLane="gneE1_0" departPos="5.10" departSpeed="0.00" departDelay="64.00" arrival="220.00" arrivalLane="gneE2_0" arrivalPos="491.30" arrivalSpeed="8.97" duration="96.00" routeLength="701.88" waitingTime="0.00" waitingCount="0" stopTime="0.00" timeLoss="37.33" rerouteNo="0" devices="tripinfo_random53" vType="type1" speedFactor="1.10" vaporized=""/>
    <tripinfo id="random87" depart="154.00" departLane="gneE0_0" departPos="5.10" departSpeed="0.00" departDelay="88.00" arrival="220.00" arrivalLane="gneE0_0" arrivalPos="671.08" arrivalSpeed="11.91" duration="66.00" routeLength="665.98" waitingTime="0.00" waitingCount="0" stopTime="0.00" timeLoss="9.79" rerouteNo="0" devices="tripinfo_random87" vType="type1" speedFactor="1.04" vaporized=""/>
    <tripinfo id="random24" depart="113.00" departLane="gneE3_0" departPos="8.10" departSpeed="0.00" departDelay="59.00" arrival="223.00" arrivalLane="gneE4_0" arrivalPos="431.40" arrivalSpeed="8.00" duration="110.00" routeLength="772.51" waitingTime="0.00" waitingCount="0" stopTime="0.00" timeLoss="12.70" rerouteNo="0" devices="tripinfo_random24" vType="type3" speedFactor="0.83" vaporized=""/>
    <tripinfo id="random29" depart="118.00" departLane="gneE3_0" departPos="5.10" departSpeed="0.00" departDelay="64.00" arrival="225.00" arrivalLane="gneE4_0" arrivalPos="431.40" arrivalSpeed="12.92" duration="107.00" routeLength="775.51" waitingTime="1.00" waitingCount="1" stopTime="0.00" timeLoss="50.05" rerouteNo="0" devices="tripinfo_random29" vType="type2" speedFactor="0.93" vaporized=""/>
    <tripinfo id="random35" depart="122.00" departLane="gneE3_0" departPos="5.10" departSpeed="0.00" departDelay="66.00" arrival="226.00" arrivalLane="gneE4_0" arrivalPos="431.40" arrivalSpeed="14.95" duration="104.00" routeLength="775.51" waitingTime="0.00" waitingCount="0" stopTime="0.00" timeLoss="53.20" rerouteNo="0" devices="tripinfo_random35" vType="type2" speedFactor="1.02" vaporized=""/>
    <tripinfo id="random98" depart="169.00" departLane="gneE0_0" departPos="5.10" departSpeed="0.00" departDelay="101.00" arrival="226.00" arrivalLane="gneE0_0" arrivalPos="671.08" arrivalSpeed="12.19" duration="57.00" routeLength="665.98" waitingTime="0.00" waitingCount="0" stopTime="0.00" timeLoss="7.10" rerouteNo="0" devices="tripinfo_random98" vType="type2" speedFactor="1.12" vaporized=""/>
    <tripinfo id="random54" depart="130.00" departLane="gneE1_0" departPos="8.10" departSpeed="0.00" departDelay="70.00" arrival="228.00" arrivalLane="gneE2_0" arrivalPos="491.30" arrivalSpeed="7.90" duration="98.00" routeLength="698.88" waitingTime="0.00" waitingCount="0" stopTime="0.00" timeLoss="10.47" rerouteNo="0" devices="tripinfo_random54" vType="type3" speedFactor="1.00" vaporized=""/>
    <tripinfo id="random89" depart="159.00" departLane="gneE0_0" departPos="5.10" departSpeed="0.00" departDelay="93.00" arrival="229.00" arrivalLane="gneE0_0" arrivalPos="671.08" arrivalSpeed="11.99" duration="70.00" routeLength="665.98" waitingTime="0.00" waitingCount="0" stopTime="0.00" timeLoss="13.80" rerouteNo="0" devices="tripinfo_random89" vType="type1" speedFactor="1.02" vaporized=""/>
    <tripinfo id="random55" depart="135.00" departLane="gneE1_0" departPos="5.10" departSpeed="0.00" departDelay="75.00" arrival="231.00" arrivalLane="gneE2_0" arrivalPos="491.30" arrivalSpeed="9.16" duration="96.00" routeLength="701.88" waitingTime="0.00" waitingCount="0" stopTime="0.00" timeLoss="36.80" rerouteNo="0" devices="tripinfo_random55" vType="type1" speedFactor="1.00" vaporized=""/>
    <tripinfo id="random58" depart="140.00" departLane="gneE1_0" departPos="5.10" departSpeed="0.00" departDelay="80.00" arrival="232.00" arrivalLane="gneE2_0" arrivalPos="491.30" arrivalSpeed="9.54" duration="92.00" routeLength="701.88" waitingTime="0.00" waitingCount="0" stopTime="0.00" timeLoss="33.44" rerouteNo="0" devices="tripinfo_random58" vType="type1" speedFactor="1.02" vaporized=""/>
    <tripinfo id="random39" depart="125.00" departLane="gneE3_0" departPos="8.10" departSpeed="0.00" departDelay="69.00" arrival="234.00" arrivalLane="gneE4_0" arrivalPos="431.40" arrivalSpeed="7.75" duration="109.00" routeLength="772.51" waitingTime="0.00" waitingCount="0" stopTime="0.00" timeLoss="11.62" rerouteNo="0" devices="tripinfo_random39" vType="type3" speedFactor="0.90" vaporized=""/>
    <tripinfo id="random61" depart="145.00" departLane="gneE1_0" departPos="5.10" departSpeed="0.00" departDelay="83.00" arrival="234.00" arrivalLane="gneE2_0" arrivalPos="491.30" arrivalSpeed="10.42" duration="89.00" routeLength="701.88" waitingTime="0.00" waitingCount="0" stopTime="0.00" timeLoss="30.21" rerouteNo="0" devices="tripinfo_random61" vType="type1" speedFactor="1.12" vaporized=""/>
    <tripinfo id="random82" depart="144.00" departLane="gneE0_0" departPos="8.10" departSpeed="0.00" departDelay="78.00" arrival="235.00" arrivalLane="gneE0_0" arrivalPos="671.08" arrivalSpeed="7.74" duration="91.00" routeLength="662.98" waitingTime="0.00" waitingCount="0" stopTime="0.00" timeLoss="7.97" rerouteNo="0" devices="tripinfo_random82" vType="type3" speedFactor="1.02" vaporized=""/>
    <tripinfo id="random44" depart="130.00" departLane="gneE3_0" departPos="5.10" departSpeed="0.00" departDelay="72.00" arrival="236.00" arrivalLane="gneE4_0" arrivalPos="431.40" arrivalSpeed="12.27" duration="106.00" routeLength="775.51" waitingTime="1.00" waitingCount="1" stopTime="0.00" timeLoss="55.46" rerouteNo="0" devices="tripinfo_random44" vType="type2" speedFactor="1.04" vaporized=""/>
    <tripinfo id="random67" depart="150.00" departLane="gneE1_0" departPos="5.10" departSpeed="0.00" departDelay="88.00" arrival="236.00" arrivalLane="gneE2_0" arrivalPos="491.30" arrivalSpeed="12.31" duration="86.00" routeLength="701.88" waitingTime="0.00" waitingCount="0" stopTime="0.00" timeLoss="30.43" rerouteNo="0" devices="tripinfo_random67" vType="type2" speedFactor="0.91" vaporized=""/>
    <tripinfo id="random92" depart="164.00" departLane="gneE0_0" departPos="5.10" departSpeed="0.00" departDelay="96.00" arrival="240.00" arrivalLane="gneE0_0" arrivalPos="671.08" arrivalSpeed="9.86" duration="76.00" routeLength="665.98" waitingTime="0.00" waitingCount="0" stopTime="0.00" timeLoss="8.49" rerouteNo="0" devices="tripinfo_random92" vType="type1" speedFactor="0.83" vaporized=""/>
    <tripinfo id="random45" depart="134.00" departLane="gneE3_0" departPos="8.10" departSpeed="0.00" departDelay="76.00" arrival="242.00" arrivalLane="gneE4_0" arrivalPos="431.40" arrivalSpeed="7.62" duration="108.00" routeLength="772.51" waitingTime="0.00" waitingCount="0" stopTime="0.00" timeLoss="10.72" rerouteNo="0" devices="tripinfo_random45" vType="type3" speedFactor="1.09" vaporized=""/>