<?xml version="1.0" encoding="UTF-8"?>

<!-- generated on 06/12/21 19:36:48 by Eclipse SUMO GUI Version 1.8.0
<configuration xmlns:xsi="http://www.w3.org/2001/XMLSchema-instance" xsi:noNamespaceSchemaLocation="http://sumo.dlr.de/xsd/sumoConfiguration.xsd">

    <input>
        <net-file value="SUMO/new.net.xml"/>
        <route-files value="SUMO/roundabout.rou.xml"/>
    </input>

    <output>
        <tripinfo-output value="SUMO/tripinfo.xml"/>
    </output>

    <time>
        <begin value="0"/>
        <end value="3600"/>
    </time>

    <processing>
        <time-to-teleport value="-1"/>
    </processing>

    <report>
        <xml-validation value="never"/>
        <xml-validation.routes value="never"/>
        <duration-log.disable value="true"/>
        <no-step-log value="true"/>
    </report>

    <gui_only>
        <gui-settings-file value="SUMO/gui-settings.cfg"/>
    </gui_only>

</configuration>
-->

<tripinfos xmlns:xsi="http://www.w3.org/2001/XMLSchema-instance" xsi:noNamespaceSchemaLocation="http://sumo.dlr.de/xsd/tripinfo_file.xsd">
    <tripinfo id="1" depart="15.00" departLane="gneE0_0" departPos="5.10" departSpeed="0.00" departDelay="0.50" arrival="82.00" arrivalLane="gneE0_0" arrivalPos="671.08" arrivalSpeed="11.62" duration="67.00" routeLength="665.98" waitingTime="0.00" waitingCount="0" stopTime="0.00" timeLoss="10.90" rerouteNo="0" devices="tripinfo_1" vType="type1" speedFactor="1.07" vaporized=""/>
    <tripinfo id="3" depart="34.00" departLane="gneE0_0" departPos="5.10" departSpeed="0.00" departDelay="0.50" arrival="101.00" arrivalLane="gneE0_0" arrivalPos="671.08" arrivalSpeed="11.54" duration="67.00" routeLength="665.98" waitingTime="0.00" waitingCount="0" stopTime="0.00" timeLoss="9.65" rerouteNo="0" devices="tripinfo_3" vType="type1" speedFactor="0.97" vaporized=""/>
    <tripinfo id="random3" depart="50.00" departLane="gneE1_0" departPos="5.10" departSpeed="0.00" departDelay="0.00" arrival="104.00" arrivalLane="gneE2_0" arrivalPos="491.30" arrivalSpeed="13.45" duration="54.00" routeLength="701.88" waitingTime="0.00" waitingCount="0" stopTime="0.00" timeLoss="7.17" rerouteNo="0" devices="tripinfo_random3" vType="type2" speedFactor="1.08" vaporized=""/>
    <tripinfo id="2" depart="41.00" departLane="gneE0_0" departPos="5.10" departSpeed="0.00" departDelay="0.00" arrival="108.00" arrivalLane="gneE0_0" arrivalPos="671.08" arrivalSpeed="9.50" duration="67.00" routeLength="665.98" waitingTime="0.00" waitingCount="0" stopTime="0.00" timeLoss="8.54" rerouteNo="0" devices="tripinfo_2" vType="type2" speedFactor="0.96" vaporized=""/>
    <tripinfo id="random4" depart="52.00" departLane="gneE1_0" departPos="5.10" departSpeed="0.00" departDelay="2.00" arrival="110.00" arrivalLane="gneE2_0" arrivalPos="491.30" arrivalSpeed="13.49" duration="58.00" routeLength="701.88" waitingTime="0.00" waitingCount="0" stopTime="0.00" timeLoss="8.88" rerouteNo="0" devices="tripinfo_random4" vType="type2" speedFactor="1.03" vaporized=""/>
    <tripinfo id="4" depart="57.00" departLane="gneE0_0" departPos="5.10" departSpeed="0.00" departDelay="7.00" arrival="127.00" arrivalLane="gneE0_0" arrivalPos="671.08" arrivalSpeed="11.41" duration="70.00" routeLength="665.98" waitingTime="0.00" waitingCount="0" stopTime="0.00" timeLoss="11.53" rerouteNo="0" devices="tripinfo_4" vType="type2" speedFactor="0.95" vaporized=""/>
    <tripinfo id="random0" depart="50.00" departLane="gneE3_0" departPos="5.10" departSpeed="0.00" departDelay="0.00" arrival="130.00" arrivalLane="gneE4_0" arrivalPos="431.40" arrivalSpeed="11.70" duration="80.00" routeLength="775.51" waitingTime="0.00" waitingCount="0" stopTime="0.00" timeLoss="15.12" rerouteNo="0" devices="tripinfo_random0" vType="type1" speedFactor="1.06" vaporized=""/>
    <tripinfo id="random9" depart="55.00" departLane="gneE0_0" departPos="5.10" departSpeed="0.00" departDelay="5.00" arrival="131.00" arrivalLane="gneE0_0" arrivalPos="671.08" arrivalSpeed="9.84" duration="76.00" routeLength="665.98" waitingTime="0.00" waitingCount="0" stopTime="0.00" timeLoss="11.13" rerouteNo="0" devices="tripinfo_random9" vType="type2" speedFactor="0.86" vaporized=""/>
    <tripinfo id="random2" depart="55.00" departLane="gneE3_0" departPos="5.10" departSpeed="0.00" departDelay="5.00" arrival="132.00" arrivalLane="gneE4_0" arrivalPos="431.40" arrivalSpeed="13.16" duration="77.00" routeLength="775.51" waitingTime="0.00" waitingCount="0" stopTime="0.00" timeLoss="24.80" rerouteNo="0" devices="tripinfo_random2" vType="type2" speedFactor="1.01" vaporized=""/>
    <tripinfo id="random15" depart="65.00" departLane="gneE0_0" departPos="5.10" departSpeed="0.00" departDelay="5.00" arrival="135.00" arrivalLane="gneE0_0" arrivalPos="671.08" arrivalSpeed="10.84" duration="70.00" routeLength="665.98" waitingTime="0.00" waitingCount="0" stopTime="0.00" timeLoss="9.87" rerouteNo="0" devices="tripinfo_random15" vType="type1" speedFactor="0.93" vaporized=""/>
    <tripinfo id="random5" depart="58.00" departLane="gneE3_0" departPos="5.10" departSpeed="0.00" departDelay="8.00" arrival="137.00" arrivalLane="gneE4_0" arrivalPos="431.40" arrivalSpeed="12.28" duration="79.00" routeLength="775.51" waitingTime="0.00" waitingCount="0" stopTime="0.00" timeLoss="15.96" rerouteNo="0" devices="tripinfo_random5" vType="type2" speedFactor="0.83" vaporized=""/>
    <tripinfo id="random1" depart="50.00" departLane="gneE0_0" departPos="8.10" departSpeed="0.00" departDelay="0.00" arrival="141.00" arrivalLane="gneE0_0" arrivalPos="671.08" arrivalSpeed="7.86" duration="91.00" routeLength="662.98" waitingTime="0.00" waitingCount="0" stopTime="0.00" timeLoss="7.81" rerouteNo="0" devices="tripinfo_random1" vType="type3" speedFactor="0.94" vaporized=""/>
    <tripinfo id="random7" depart="61.00" departLane="gneE3_0" departPos="5.10" departSpeed="0.00" departDelay="11.00" arrival="143.00" arrivalLane="gneE4_0" arrivalPos="431.40" arrivalSpeed="11.95" duration="82.00" routeLength="775.51" waitingTime="0.00" waitingCount="0" stopTime="0.00" timeLoss="16.43" rerouteNo="0" devices="tripinfo_random7" vType="type1" speedFactor="0.89" vaporized=""/>
    <tripinfo id="5" depart="60.00" departLane="gneE0_0" departPos="8.10" departSpeed="0.00" departDelay="6.50" arrival="151.00" arrivalLane="gneE0_0" arrivalPos="671.08" arrivalSpeed="7.89" duration="91.00" routeLength="662.98" waitingTime="0.00" waitingCount="0" stopTime="0.00" timeLoss="8.09" rerouteNo="0" devices="tripinfo_5" vType="type3" speedFactor="0.89" vaporized=""/>
    <tripinfo id="random6" depart="55.00" departLane="gneE1_0" departPos="8.10" departSpeed="0.00" departDelay="5.00" arrival="153.00" arrivalLane="gneE2_0" arrivalPos="491.30" arrivalSpeed="7.96" duration="98.00" routeLength="698.88" waitingTime="0.00" waitingCount="0" stopTime="0.00" timeLoss="10.30" rerouteNo="0" devices="tripinfo_random6" vType="type3" speedFactor="1.05" vaporized=""/>
    <tripinfo id="random10" depart="61.00" departLane="gneE1_0" departPos="8.10" departSpeed="0.00" departDelay="1.00" arrival="160.00" arrivalLane="gneE2_0" arrivalPos="491.30" arrivalSpeed="7.71" duration="99.00" routeLength="698.88" waitingTime="0.00" waitingCount="0" stopTime="0.00" timeLoss="11.48" rerouteNo="0" devices="tripinfo_random10" vType="type3" speedFactor="1.09" vaporized=""/>
    <tripinfo id="random16" depart="71.00" departLane="gneE0_0" departPos="8.10" departSpeed="0.00" departDelay="11.00" arrival="162.00" arrivalLane="gneE0_0" arrivalPos="671.08" arrivalSpeed="7.71" duration="91.00" routeLength="662.98" waitingTime="0.00" waitingCount="0" stopTime="0.00" timeLoss="7.71" rerouteNo="0" devices="tripinfo_random16" vType="type3" speedFactor="0.88" vaporized=""/>
    <tripinfo id="random22" depart="94.00" departLane="gneE0_0" departPos="5.10" departSpeed="0.00" departDelay="24.00" arrival="162.00" arrivalLane="gneE0_1" arrivalPos="671.08" arrivalSpeed="11.66" duration="68.00" routeLength="665.98" waitingTime="0.00" waitingCount="0" stopTime="0.00" timeLoss="11.00" rerouteNo="0" devices="tripinfo_random22" vType="type1" speedFactor="0.98" vaporized=""/>
    <tripinfo id="random11" depart="68.00" departLane="gneE1_0" departPos="8.10" departSpeed="0.00" departDelay="8.00" arrival="165.00" arrivalLane="gneE2_0" arrivalPos="491.30" arrivalSpeed="7.82" duration="97.00" routeLength="698.88" waitingTime="0.00" waitingCount="0" stopTime="0.00" timeLoss="9.60" rerouteNo="0" devices="tripinfo_random11" vType="type3" speedFactor="1.03" vaporized=""/>
    <tripinfo id="random14" depart="73.00" departLane="gneE1_0" departPos="5.10" departSpeed="0.00" departDelay="13.00" arrival="167.00" arrivalLane="gneE2_0" arrivalPos="491.30" arrivalSpeed="11.86" duration="94.00" routeLength="701.88" waitingTime="0.00" waitingCount="0" stopTime="0.00" timeLoss="42.71" rerouteNo="0" devices="tripinfo_random14" vType="type2" speedFactor="0.99" vaporized=""/>
    <tripinfo id="random17" depart="77.00" departLane="gneE0_0" departPos="8.10" departSpeed="0.00" departDelay="17.00" arrival="168.00" arrivalLane="gneE0_0" arrivalPos="671.08" arrivalSpeed="7.95" duration="91.00" routeLength="662.98" waitingTime="0.00" waitingCount="0" stopTime="0.00" timeLoss="7.70" rerouteNo="0" devices="tripinfo_random17" vType="type3" speedFactor="0.94" vaporized=""/>
    <tripinfo id="random23" depart="99.00" departLane="gneE0_0" departPos="5.10" departSpeed="0.00" departDelay="29.00" arrival="171.00" arrivalLane="gneE0_1" arrivalPos="671.08" arrivalSpeed="10.51" duration="72.00" routeLength="665.98" waitingTime="0.00" waitingCount="0" stopTime="0.00" timeLoss="9.26" rerouteNo="0" devices="tripinfo_random23" vType="type1" speedFactor="0.89" vaporized=""/>
    <tripinfo id="random30" depart="112.00" departLane="gneE0_0" departPos="5.10" departSpeed="0.00" departDelay="32.00" arrival="173.00" arrivalLane="gneE0_1" arrivalPos="671.08" arrivalSpeed="13.58" duration="61.00" routeLength="665.98" waitingTime="0.00" waitingCount="0" stopTime="0.00" timeLoss="13.69" rerouteNo="0" devices="tripinfo_random30" vType="type2" speedFactor="1.18" vaporized=""/>
    <tripinfo id="random18" depart="77.00" departLane="gneE1_0" departPos="8.10" departSpeed="0.00" departDelay="17.00" arrival="175.00" arrivalLane="gneE2_0" arrivalPos="491.30" arrivalSpeed="7.78" duration="98.00" routeLength="698.88" waitingTime="0.00" waitingCount="0" stopTime="0.00" timeLoss="10.55" rerouteNo="0" devices="tripinfo_random18" vType="type3" speedFactor="0.94" vaporized=""/>
    <tripinfo id="random19" depart="83.00" departLane="gneE0_0" departPos="8.10" departSpeed="0.00" departDelay="23.00" arrival="175.00" arrivalLane="gneE0_0" arrivalPos="671.08" arrivalSpeed="7.82" duration="92.00" routeLength="662.98" waitingTime="0.00" waitingCount="0" stopTime="0.00" timeLoss="8.59" rerouteNo="0" devices="tripinfo_random19" vType="type3" speedFactor="1.16" vaporized=""/>
    <tripinfo id="random8" depart="67.00" departLane="gneE3_0" departPos="8.10" departSpeed="0.00" departDelay="17.00" arrival="176.00" arrivalLane="gneE4_0" arrivalPos="431.40" arrivalSpeed="7.75" duration="109.00" routeLength="772.51" waitingTime="0.00" waitingCount="0" stopTime="0.00" timeLoss="11.19" rerouteNo="0" devices="tripinfo_random8" vType="type3" speedFactor="0.94" vaporized=""/>
    <tripinfo id="random20" depart="82.00" departLane="gneE1_0" departPos="5.10" departSpeed="0.00" departDelay="12.00" arrival="177.00" arrivalLane="gneE2_0" arrivalPos="491.30" arrivalSpeed="12.77" duration="95.00" routeLength="701.88" waitingTime="0.00" waitingCount="0" stopTime="0.00" timeLoss="44.59" rerouteNo="0" devices="tripinfo_random20" vType="type2" speedFactor="1.02" vaporized=""/>
    <tripinfo id="random12" depart="72.00" departLane="gneE3_0" departPos="5.10" departSpeed="0.00" departDelay="12.00" arrival="178.00" arrivalLane="gneE4_0" arrivalPos="431.40" arrivalSpeed="8.73" duration="106.00" routeLength="775.51" waitingTime="0.00" waitingCount="0" stopTime="0.00" timeLoss="40.39" rerouteNo="0" devices="tripinfo_random12" vType="type1" speedFactor="1.05" vaporized=""/>
    <tripinfo id="random27" depart="111.00" departLane="gneE0_0" departPos="5.10" departSpeed="0.00" departDelay="41.00" arrival="178.00" arrivalLane="gneE0_1" arrivalPos="671.08" arrivalSpeed="11.38" duration="67.00" routeLength="665.98" waitingTime="0.00" waitingCount="0" stopTime="0.00" timeLoss="7.71" rerouteNo="0" devices="tripinfo_random27" vType="type2" speedFactor="0.95" vaporized=""/>
    <tripinfo id="random21" depart="89.00" departLane="gneE0_0" departPos="8.10" departSpeed="0.00" departDelay="19.00" arrival="179.00" arrivalLane="gneE0_0" arrivalPos="671.08" arrivalSpeed="7.83" duration="90.00" routeLength="662.98" waitingTime="0.00" waitingCount="0" stopTime="0.00" timeLoss="6.93" rerouteNo="0" devices="tripinfo_random21" vType="type3" speedFactor="1.01" vaporized=""/>
    <tripinfo id="random13" depart="77.00" departLane="gneE3_0" departPos="5.10" departSpeed="0.00" departDelay="17.00" arrival="180.00" arrivalLane="gneE4_0" arrivalPos="431.40" arrivalSpeed="9.84" duration="103.00" routeLength="775.51" waitingTime="0.00" waitingCount="0" stopTime="0.00" timeLoss="37.22" rerouteNo="0" devices="tripinfo_random13" vType="type1" speedFactor="1.12" vaporized=""/>
    <tripinfo id="random25" depart="86.00" departLane="gneE1_0" departPos="5.10" departSpeed="0.00" departDelay="16.00" arrival="180.00" arrivalLane="gneE2_0" arrivalPos="491.30" arrivalSpeed="9.14" duration="94.00" routeLength="701.88" waitingTime="0.00" waitingCount="0" stopTime="0.00" timeLoss="35.25" rerouteNo="0" devices="tripinfo_random25" vType="type1" speedFactor="0.87" vaporized=""/>
    <tripinfo id="random26" depart="106.00" departLane="gneE0_0" departPos="5.10" departSpeed="0.00" departDelay="36.00" arrival="180.00" arrivalLane="gneE0_1" arrivalPos="671.08" arrivalSpeed="10.87" duration="74.00" routeLength="665.98" waitingTime="0.00" waitingCount="0" stopTime="0.00" timeLoss="12.53" rerouteNo="0" devices="tripinfo_random26" vType="type1" speedFactor="0.92" vaporized=""/>
    <tripinfo id="random28" depart="91.00" departLane="gneE1_0" departPos="5.10" departSpeed="0.00" departDelay="21.00" arrival="182.00" arrivalLane="gneE2_0" arrivalPos="491.30" arrivalSpeed="9.33" duration="91.00" routeLength="701.88" waitingTime="0.00" waitingCount="0" stopTime="0.00" timeLoss="32.20" rerouteNo="0" devices="tripinfo_random28" vType="type1" speedFactor="1.13" vaporized=""/>
    <tripinfo id="random29" depart="82.00" departLane="gneE3_0" departPos="5.10" departSpeed="0.00" departDelay="12.00" arrival="182.00" arrivalLane="gneE4_0" arrivalPos="431.40" arrivalSpeed="10.12" duration="100.00" routeLength="775.51" waitingTime="0.00" waitingCount="0" stopTime="0.00" timeLoss="34.04" rerouteNo="0" devices="tripinfo_random29" vType="type1" speedFactor="0.93" vaporized=""/>
    <tripinfo id="random24" depart="104.00" departLane="gneE0_0" departPos="5.10" departSpeed="0.00" departDelay="34.00" arrival="184.00" arrivalLane="gneE0_0" arrivalPos="671.08" arrivalSpeed="9.30" duration="80.00" routeLength="665.98" waitingTime="0.00" waitingCount="0" stopTime="0.00" timeLoss="12.69" rerouteNo="0" devices="tripinfo_random24" vType="type2" speedFactor="0.83" vaporized=""/>
    <tripinfo id="random31" depart="87.00" departLane="gneE3_0" departPos="5.10" departSpeed="0.00" departDelay="7.00" arrival="184.00" arrivalLane="gneE4_0" arrivalPos="431.40" arrivalSpeed="10.33" duration="97.00" routeLength="775.51" waitingTime="0.00" waitingCount="0" stopTime="0.00" timeLoss="31.03" rerouteNo="0" devices="tripinfo_random31" vType="type1" speedFactor="1.15" vaporized=""/>
    <tripinfo id="random41" depart="97.00" departLane="gneE1_0" departPos="5.10" departSpeed="0.00" departDelay="7.00" arrival="184.00" arrivalLane="gneE2_0" arrivalPos="491.30" arrivalSpeed="11.88" duration="87.00" routeLength="701.88" waitingTime="0.00" waitingCount="0" stopTime="0.00" timeLoss="33.67" rerouteNo="0" devices="tripinfo_random41" vType="type2" speedFactor="0.96" vaporized=""/>
    <tripinfo id="random32" depart="92.00" departLane="gneE3_0" departPos="5.10" departSpeed="0.00" departDelay="12.00" arrival="185.00" arrivalLane="gneE4_0" arrivalPos="431.40" arrivalSpeed="13.22" duration="93.00" routeLength="775.51" waitingTime="0.00" waitingCount="0" stopTime="0.00" timeLoss="41.46" rerouteNo="0" devices="tripinfo_random32" vType="type2" speedFactor="1.01" vaporized=""/>
    <tripinfo id="random42" depart="101.00" departLane="gneE1_0" departPos="5.10" departSpeed="0.00" departDelay="11.00" arrival="186.00" arrivalLane="gneE2_0" arrivalPos="491.30" arrivalSpeed="12.69" duration="85.00" routeLength="701.88" waitingTime="0.00" waitingCount="0" stopTime="0.00" timeLoss="37.42" rerouteNo="0" devices="tripinfo_random42" vType="type2" speedFactor="1.09" vaporized=""/>
    <tripinfo id="random33" depart="95.00" departLane="gneE3_0" departPos="5.10" departSpeed="0.00" departDelay="15.00" arrival="187.00" arrivalLane="gneE4_0" arrivalPos="431.40" arrivalSpeed="16.94" duration="92.00" routeLength="775.51" waitingTime="0.00" waitingCount="0" stopTime="0.00" timeLoss="47.41" rerouteNo="0" devices="tripinfo_random33" vType="type2" speedFactor="1.17" vaporized=""/>
    <tripinfo id="random45" depart="104.00" departLane="gneE1_0" departPos="5.10" departSpeed="0.00" departDelay="14.00" arrival="187.00" arrivalLane="gneE2_0" arrivalPos="491.30" arrivalSpeed="14.62" duration="83.00" routeLength="701.88" waitingTime="0.00" waitingCount="0" stopTime="0.00" timeLoss="36.45" rerouteNo="0" devices="tripinfo_random45" vType="type2" speedFactor="1.09" vaporized=""/>
    <tripinfo id="random37" depart="98.00" departLane="gneE3_0" departPos="5.10" departSpeed="0.00" departDelay="18.00" arrival="189.00" arrivalLane="gneE4_0" arrivalPos="431.40" arrivalSpeed="15.83" duration="91.00" routeLength="775.51" waitingTime="0.00" waitingCount="0" stopTime="0.00" timeLoss="46.46" rerouteNo="0" devices="tripinfo_random37" vType="type2" speedFactor="1.18" vaporized=""/>
    <tripinfo id="random46" depart="106.00" departLane="gneE1_0" departPos="5.10" departSpeed="0.00" departDelay="16.00" arrival="190.00" arrivalLane="gneE2_0" arrivalPos="491.30" arrivalSpeed="11.54" duration="84.00" routeLength="701.88" waitingTime="0.00" waitingCount="0" stopTime="0.00" timeLoss="25.20" rerouteNo="0" devices="tripinfo_random46" vType="type1" speedFactor="1.00" vaporized=""/>
    <tripinfo id="random36" depart="126.00" departLane="gneE0_0" departPos="5.10" departSpeed="0.00" departDelay="46.00" arrival="192.00" arrivalLane="gneE0_0" arrivalPos="671.08" arrivalSpeed="10.61" duration="66.00" routeLength="665.98" waitingTime="0.00" waitingCount="0" stopTime="0.00" timeLoss="8.17" rerouteNo="0" devices="tripinfo_random36" vType="type2" speedFactor="0.97" vaporized=""/>
    <tripinfo id="random47" depart="111.00" departLane="gneE1_0" departPos="5.10" departSpeed="0.00" departDelay="21.00" arrival="192.00" arrivalLane="gneE2_0" arrivalPos="491.30" arrivalSpeed="12.33" duration="81.00" routeLength="701.88" waitingTime="0.00" waitingCount="0" stopTime="0.00" timeLoss="24.35" rerouteNo="0" devices="tripinfo_random47" vType="type2" speedFactor="0.90" vaporized=""/>
    <tripinfo id="random40" depart="132.00" departLane="gneE0_0" departPos="5.10" departSpeed="0.00" departDelay="42.00" arrival="194.00" arrivalLane="gneE0_1" arrivalPos="671.08" arrivalSpeed="12.35" duration="62.00" routeLength="665.98" waitingTime="0.00" waitingCount="0" stopTime="0.00" timeLoss="7.39" rerouteNo="0" devices="tripinfo_random40" vType="type2" speedFactor="1.03" vaporized=""/>
    <tripinfo id="random34" depart="115.00" departLane="gneE0_0" departPos="8.10" departSpeed="0.00" departDelay="35.00" arrival="206.00" arrivalLane="gneE0_0" arrivalPos="671.08" arrivalSpeed="7.73" duration="91.00" routeLength="662.98" waitingTime="0.00" waitingCount="0" stopTime="0.00" timeLoss="7.81" rerouteNo="0" devices="tripinfo_random34" vType="type3" speedFactor="0.99" vaporized=""/>
    <tripinfo id="random38" depart="101.00" departLane="gneE3_0" departPos="8.10" departSpeed="0.00" departDelay="21.00" arrival="209.00" arrivalLane="gneE4_0" arrivalPos="431.40" arrivalSpeed="7.88" duration="108.00" routeLength="772.51" waitingTime="0.00" waitingCount="0" stopTime="0.00" timeLoss="10.63" rerouteNo="0" devices="tripinfo_random38" vType="type3" speedFactor="1.10" vaporized=""/>
    <tripinfo id="random43" depart="106.00" departLane="gneE3_0" departPos="5.10" departSpeed="0.00" departDelay="16.00" arrival="211.00" arrivalLane="gneE4_0" arrivalPos="431.40" arrivalSpeed="14.13" duration="105.00" routeLength="775.51" waitingTime="0.00" waitingCount="0" stopTime="0.00" timeLoss="54.65" rerouteNo="0" devices="tripinfo_random43" vType="type2" speedFactor="1.04" vaporized=""/>
    <tripinfo id="random35" depart="121.00" departLane="gneE0_0" departPos="8.10" departSpeed="0.00" departDelay="41.00" arrival="212.00" arrivalLane="gneE0_0" arrivalPos="671.08" arrivalSpeed="7.87" duration="91.00" routeLength="662.98" waitingTime="0.00" waitingCount="0" stopTime="0.00" timeLoss="8.12" rerouteNo="0" devices="tripinfo_random35" vType="type3" speedFactor="1.02" vaporized=""/>
    <tripinfo id="random44" depart="110.00" departLane="gneE3_0" departPos="5.10" departSpeed="0.00" departDelay="20.00" arrival="213.00" arrivalLane="gneE4_0" arrivalPos="431.40" arrivalSpeed="8.55" duration="103.00" routeLength="775.51" waitingTime="0.00" waitingCount="0" stopTime="0.00" timeLoss="37.70" rerouteNo="0" devices="tripinfo_random44" vType="type1" speedFactor="1.04" vaporized=""/>
    <tripinfo id="random52" depart="115.00" departLane="gneE1_0" departPos="8.10" departSpeed="0.00" departDelay="15.00" arrival="213.00" arrivalLane="gneE2_0" arrivalPos="491.30" arrivalSpeed="7.98" duration="98.00" routeLength="698.88" waitingTime="0.00" waitingCount="0" stopTime="0.00" timeLoss="9.75" rerouteNo="0" devices="tripinfo_random52" vType="type3" speedFactor="1.02" vaporized=""/>
    <tripinfo id="random53" depart="120.00" departLane="gneE1_0" departPos="5.10" departSpeed="0.00" departDelay="20.00" arrival="215.00" arrivalLane="gneE2_0" arrivalPos="491.30" arrivalSpeed="9.10" duration="95.00" routeLength="701.88" waitingTime="0.00" waitingCount="0" stopTime="0.00" timeLoss="36.28" rerouteNo="0" devices="tripinfo_random53" vType="type1" speedFactor="1.10" vaporized=""/>
    <tripinfo id="random54" depart="125.00" departLane="gneE1_0" departPos="5.10" departSpeed="0.00" departDelay="25.00" arrival="217.00" arrivalLane="gneE2_0" arrivalPos="491.30" arrivalSpeed="9.81" duration="92.00" routeLength="701.88" waitingTime="1.00" waitingCount="1" stopTime="0.00" timeLoss="33.09" rerouteNo="0" devices="tripinfo_random54" vType="type1" speedFactor="1.00" vaporized=""/>
    <tripinfo id="random56" depart="144.00" departLane="gneE0_0" departPos="5.10" departSpeed="0.00" departDelay="44.00" arrival="217.00" arrivalLane="gneE0_1" arrivalPos="671.08" arrivalSpeed="9.14" duration="73.00" routeLength="665.98" waitingTime="0.00" waitingCount="0" stopTime="0.00" timeLoss="10.60" rerouteNo="0" devices="tripinfo_random56" vType="type2" speedFactor="0.90" vaporized=""/>
    <tripinfo id="random39" depart="127.00" departLane="gneE0_0" departPos="8.10" departSpeed="0.00" departDelay="47.00" arrival="218.00" arrivalLane="gneE0_0" arrivalPos="671.08" arrivalSpeed="7.64" duration="91.00" routeLength="662.98" waitingTime="0.00" waitingCount="0" stopTime="0.00" timeLoss="7.87" rerouteNo="0" devices="tripinfo_random39" vType="type3" speedFactor="0.90" vaporized=""/>
    <tripinfo id="random55" depart="131.00" departLane="gneE1_0" departPos="5.10" departSpeed="0.00" departDelay="31.00" arrival="219.00" arrivalLane="gneE2_0" arrivalPos="491.30" arrivalSpeed="10.48" duration="88.00" routeLength="701.88" waitingTime="0.00" waitingCount="0" stopTime="0.00" timeLoss="28.87" rerouteNo="0" devices="tripinfo_random55" vType="type1" speedFactor="1.00" vaporized=""/>
    <tripinfo id="random60" depart="146.00" departLane="gneE0_0" departPos="5.10" departSpeed="0.00" departDelay="36.00" arrival="219.00" arrivalLane="gneE0_1" arrivalPos="671.08" arrivalSpeed="9.72" duration="73.00" routeLength="665.98" waitingTime="0.00" waitingCount="0" stopTime="0.00" timeLoss="16.77" rerouteNo="0" devices="tripinfo_random60" vType="type1" speedFactor="1.08" vaporized=""/>
    <tripinfo id="random61" depart="151.00" departLane="gneE0_0" departPos="5.10" departSpeed="0.00" departDelay="41.00" arrival="220.00" arrivalLane="gneE0_1" arrivalPos="671.08" arrivalSpeed="9.86" duration="69.00" routeLength="665.98" waitingTime="0.00" waitingCount="0" stopTime="0.00" timeLoss="13.42" rerouteNo="0" devices="tripinfo_random61" vType="type1" speedFactor="1.12" vaporized=""/>
    <tripinfo id="random57" depart="137.00" departLane="gneE1_0" departPos="5.10" departSpeed="0.00" departDelay="37.00" arrival="221.00" arrivalLane="gneE2_0" arrivalPos="491.30" arrivalSpeed="15.06" duration="84.00" routeLength="701.88" waitingTime="0.00" waitingCount="0" stopTime="0.00" timeLoss="38.89" rerouteNo="0" devices="tripinfo_random57" vType="type2" speedFactor="1.14" vaporized=""/>
    <tripinfo id="random58" depart="140.00" departLane="gneE1_0" departPos="5.10" departSpeed="0.00" departDelay="40.00" arrival="222.00" arrivalLane="gneE2_0" arrivalPos="491.30" arrivalSpeed="13.92" duration="82.00" routeLength="701.88" waitingTime="0.00" waitingCount="0" stopTime="0.00" timeLoss="32.54" rerouteNo="0" devices="tripinfo_random58" vType="type2" speedFactor="1.02" vaporized=""/>
    <tripinfo id="random63" depart="156.00" departLane="gneE0_0" departPos="5.10" departSpeed="0.00" departDelay="46.00" arrival="223.00" arrivalLane="gneE0_1" arrivalPos="671.08" arrivalSpeed="11.72" duration="67.00" routeLength="665.98" waitingTime="0.00" waitingCount="0" stopTime="0.00" timeLoss="10.27" rerouteNo="0" devices="tripinfo_random63" vType="type1" speedFactor="0.99" vaporized=""/>
    <tripinfo id="random48" depart="133.00" departLane="gneE0_0" departPos="8.10" departSpeed="0.00" departDelay="43.00" arrival="224.00" arrivalLane="gneE0_0" arrivalPos="671.08" arrivalSpeed="7.87" duration="91.00" routeLength="662.98" waitingTime="0.00" waitingCount="0" stopTime="0.00" timeLoss="7.54" rerouteNo="0" devices="tripinfo_random48" vType="type3" speedFactor="0.88" vaporized=""/>
    <tripinfo id="random59" depart="143.00" departLane="gneE1_0" departPos="5.10" departSpeed="0.00" departDelay="43.00" arrival="224.00" arrivalLane="gneE2_0" arrivalPos="491.30" arrivalSpeed="13.19" duration="81.00" routeLength="701.88" waitingTime="0.00" waitingCount="0" stopTime="0.00" timeLoss="28.82" rerouteNo="0" devices="tripinfo_random59" vType="type2" speedFactor="0.97" vaporized=""/>
    <tripinfo id="random49" depart="117.00" departLane="gneE3_0" departPos="8.10" departSpeed="0.00" departDelay="27.00" arrival="226.00" arrivalLane="gneE4_0" arrivalPos="431.40" arrivalSpeed="7.98" duration="109.00" routeLength="772.51" waitingTime="0.00" waitingCount="0" stopTime="0.00" timeLoss="11.65" rerouteNo="0" devices="tripinfo_random49" vType="type3" speedFactor="0.85" vaporized=""/>
    <tripinfo id="random51" depart="139.00" departLane="gneE0_0" departPos="8.10" departSpeed="0.00" departDelay="39.00" arrival="231.00" arrivalLane="gneE0_0" arrivalPos="671.08" arrivalSpeed="7.80" duration="92.00" routeLength="662.98" waitingTime="0.00" waitingCount="0" stopTime="0.00" timeLoss="8.22" rerouteNo="0" devices="tripinfo_random51" vType="type3" speedFactor="1.17" vaporized=""/>
    <tripinfo id="random50" depart="123.00" departLane="gneE3_0" departPos="8.10" departSpeed="0.00" departDelay="23.00" arrival="232.00" arrivalLane="gneE4_0" arrivalPos="431.40" arrivalSpeed="7.79" duration="109.00" routeLength="772.51" waitingTime="0.00" waitingCount="0" stopTime="0.00" timeLoss="11.81" rerouteNo="0" devices="tripinfo_random50" vType="type3" speedFactor="0.85" vaporized=""/>
    <tripinfo id="random62" depart="128.00" departLane="gneE3_0" departPos="5.10" departSpeed="0.00" departDelay="18.00" arrival="234.00" arrivalLane="gneE4_0" arrivalPos="431.40" arrivalSpeed="8.76" duration="106.00" routeLength="775.51" waitingTime="0.00" waitingCount="0" stopTime="0.00" timeLoss="40.44" rerouteNo="0" devices="tripinfo_random62" vType="type1" speedFactor="1.02" vaporized=""/>
    <tripinfo id="random65" depart="161.00" departLane="gneE0_0" departPos="5.10" departSpeed="0.00" departDelay="51.00" arrival="234.00" arrivalLane="gneE0_0" arrivalPos="671.08" arrivalSpeed="10.42" duration="73.00" routeLength="665.98" waitingTime="0.00" waitingCount="0" stopTime="0.00" timeLoss="9.37" rerouteNo="0" devices="tripinfo_random65" vType="type1" speedFactor="0.88" vaporized=""/>
    <tripinfo id="random84" depart="166.00" departLane="gneE0_0" departPos="5.10" departSpeed="0.00" departDelay="36.00" arrival="235.00" arrivalLane="gneE0_0" arrivalPos="671.08" arrivalSpeed="11.02" duration="69.00" routeLength="665.98" waitingTime="0.00" waitingCount="0" stopTime="0.00" timeLoss="13.48" rerouteNo="0" devices="tripinfo_random84" vType="type1" speedFactor="1.15" vaporized=""/>
    <tripinfo id="random64" depart="133.00" departLane="gneE3_0" departPos="5.10" departSpeed="0.00" departDelay="23.00" arrival="236.00" arrivalLane="gneE4_0" arrivalPos="431.40" arrivalSpeed="13.63" duration="103.00" routeLength="775.51" waitingTime="0.00" waitingCount="0" stopTime="0.00" timeLoss="46.44" rerouteNo="0" devices="tripinfo_random64" vType="type2" speedFactor="0.94" vaporized=""/>