<?xml version="1.0" encoding="UTF-8"?>

<!-- generated on 2021-06-12 20:06:08 by Eclipse SUMO GUI Version 1.9.2
<configuration xmlns:xsi="http://www.w3.org/2001/XMLSchema-instance" xsi:noNamespaceSchemaLocation="http://sumo.dlr.de/xsd/sumoConfiguration.xsd">

    <input>
        <net-file value="SUMO/new.net.xml"/>
        <route-files value="SUMO/roundabout.rou.xml"/>
    </input>

    <output>
        <tripinfo-output value="SUMO/tripinfo.xml"/>
    </output>

    <time>
        <begin value="0"/>
        <end value="3600"/>
    </time>

    <processing>
        <time-to-teleport value="-1"/>
    </processing>

    <report>
        <xml-validation value="never"/>
        <xml-validation.routes value="never"/>
        <duration-log.disable value="true"/>
        <no-step-log value="true"/>
    </report>

    <gui_only>
        <gui-settings-file value="SUMO/gui-settings.cfg"/>
    </gui_only>

</configuration>
-->

<tripinfos xmlns:xsi="http://www.w3.org/2001/XMLSchema-instance" xsi:noNamespaceSchemaLocation="http://sumo.dlr.de/xsd/tripinfo_file.xsd">
    <tripinfo id="1" depart="23.00" departLane="gneE0_0" departPos="5.10" departSpeed="0.00" departDelay="0.00" arrival="90.00" arrivalLane="gneE0_0" arrivalPos="671.08" arrivalSpeed="11.80" duration="67.00" routeLength="665.98" waitingTime="0.00" waitingCount="0" stopTime="0.00" timeLoss="10.87" rerouteNo="0" devices="tripinfo_1" vType="type1" speedFactor="1.06" vaporized=""/>
    <tripinfo id="3" depart="44.00" departLane="gneE0_0" departPos="5.10" departSpeed="0.00" departDelay="0.50" arrival="110.00" arrivalLane="gneE0_0" arrivalPos="671.08" arrivalSpeed="11.70" duration="66.00" routeLength="665.98" waitingTime="0.00" waitingCount="0" stopTime="0.00" timeLoss="9.99" rerouteNo="0" devices="tripinfo_3" vType="type1" speedFactor="1.01" vaporized=""/>
    <tripinfo id="2" depart="51.00" departLane="gneE0_0" departPos="5.10" departSpeed="0.00" departDelay="0.50" arrival="120.00" arrivalLane="gneE0_0" arrivalPos="671.08" arrivalSpeed="11.12" duration="69.00" routeLength="665.98" waitingTime="0.00" waitingCount="0" stopTime="0.00" timeLoss="9.83" rerouteNo="0" devices="tripinfo_2" vType="type1" speedFactor="0.94" vaporized=""/>
    <tripinfo id="4" depart="58.00" departLane="gneE0_0" departPos="5.10" departSpeed="0.00" departDelay="0.00" arrival="125.00" arrivalLane="gneE0_0" arrivalPos="671.08" arrivalSpeed="11.87" duration="67.00" routeLength="665.98" waitingTime="0.00" waitingCount="0" stopTime="0.00" timeLoss="11.34" rerouteNo="0" devices="tripinfo_4" vType="type1" speedFactor="1.08" vaporized=""/>
    <tripinfo id="5" depart="84.00" departLane="gneE0_0" departPos="5.10" departSpeed="0.00" departDelay="0.50" arrival="149.00" arrivalLane="gneE0_0" arrivalPos="671.08" arrivalSpeed="11.90" duration="65.00" routeLength="665.98" waitingTime="0.00" waitingCount="0" stopTime="0.00" timeLoss="9.26" rerouteNo="0" devices="tripinfo_5" vType="type1" speedFactor="1.03" vaporized=""/>
</tripinfos>
