<?xml version="1.0" encoding="UTF-8"?>

<!-- generated on 2021-06-21 19:28:04 by Eclipse SUMO GUI Version 1.9.2
<configuration xmlns:xsi="http://www.w3.org/2001/XMLSchema-instance" xsi:noNamespaceSchemaLocation="http://sumo.dlr.de/xsd/sumoConfiguration.xsd">

    <input>
        <net-file value="SUMO/new.net.xml"/>
        <route-files value="SUMO/routes_clear.xml"/>
    </input>

    <output>
        <tripinfo-output value="SUMO/tripinfo.xml"/>
    </output>

    <time>
        <begin value="0"/>
        <end value="3600"/>
    </time>

    <processing>
        <time-to-teleport value="-1"/>
    </processing>

    <report>
        <xml-validation value="never"/>
        <xml-validation.routes value="never"/>
        <duration-log.disable value="true"/>
        <no-step-log value="true"/>
    </report>

    <gui_only>
        <gui-settings-file value="SUMO/gui-settings.cfg"/>
        <start value="true"/>
    </gui_only>

</configuration>
-->

<tripinfos xmlns:xsi="http://www.w3.org/2001/XMLSchema-instance" xsi:noNamespaceSchemaLocation="http://sumo.dlr.de/xsd/tripinfo_file.xsd">
    <tripinfo id="11" depart="38.00" departLane="gneE0_0" departPos="5.10" departSpeed="0.00" departDelay="0.46" arrival="105.00" arrivalLane="gneE0_0" arrivalPos="671.08" arrivalSpeed="11.70" duration="67.00" routeLength="665.98" waitingTime="0.00" waitingCount="0" stopTime="0.00" timeLoss="10.78" rerouteNo="0" devices="tripinfo_11" vType="type1" speedFactor="1.01" vaporized=""/>
    <tripinfo id="random0" depart="50.00" departLane="gneE3_0" departPos="5.10" departSpeed="0.00" departDelay="0.00" arrival="108.00" arrivalLane="gneE4_0" arrivalPos="431.40" arrivalSpeed="14.41" duration="58.00" routeLength="775.51" waitingTime="0.00" waitingCount="0" stopTime="0.00" timeLoss="8.17" rerouteNo="0" devices="tripinfo_random0" vType="type2" speedFactor="1.06" vaporized=""/>
    <tripinfo id="18" depart="44.00" departLane="gneE0_0" departPos="5.10" departSpeed="0.00" departDelay="0.94" arrival="115.00" arrivalLane="gneE0_0" arrivalPos="671.08" arrivalSpeed="10.96" duration="71.00" routeLength="665.98" waitingTime="0.00" waitingCount="0" stopTime="0.00" timeLoss="9.65" rerouteNo="0" devices="tripinfo_18" vType="type1" speedFactor="0.92" vaporized=""/>
    <tripinfo id="random3" depart="59.00" departLane="gneE0_0" departPos="5.10" departSpeed="0.00" departDelay="9.00" arrival="118.00" arrivalLane="gneE0_1" arrivalPos="671.08" arrivalSpeed="11.77" duration="59.00" routeLength="665.98" waitingTime="0.00" waitingCount="0" stopTime="0.00" timeLoss="6.89" rerouteNo="0" devices="tripinfo_random3" vType="type2" speedFactor="1.08" vaporized=""/>
    <tripinfo id="2" depart="49.00" departLane="gneE0_0" departPos="5.10" departSpeed="0.00" departDelay="3.64" arrival="119.00" arrivalLane="gneE0_0" arrivalPos="671.08" arrivalSpeed="10.74" duration="70.00" routeLength="665.98" waitingTime="0.00" waitingCount="0" stopTime="0.00" timeLoss="9.43" rerouteNo="0" devices="tripinfo_2" vType="type1" speedFactor="0.92" vaporized=""/>
    <tripinfo id="20" depart="45.00" departLane="gneE1_0" departPos="5.10" departSpeed="0.00" departDelay="0.54" arrival="119.00" arrivalLane="gneE2_0" arrivalPos="491.30" arrivalSpeed="11.82" duration="74.00" routeLength="701.88" waitingTime="0.00" waitingCount="0" stopTime="0.00" timeLoss="15.31" rerouteNo="0" devices="tripinfo_20" vType="type1" speedFactor="1.05" vaporized=""/>
    <tripinfo id="13" depart="54.00" departLane="gneE0_0" departPos="5.10" departSpeed="0.00" departDelay="8.42" arrival="120.00" arrivalLane="gneE0_1" arrivalPos="671.08" arrivalSpeed="11.70" duration="66.00" routeLength="665.98" waitingTime="0.00" waitingCount="0" stopTime="0.00" timeLoss="10.04" rerouteNo="0" devices="tripinfo_13" vType="type1" speedFactor="1.09" vaporized=""/>
    <tripinfo id="random2" depart="50.00" departLane="gneE1_0" departPos="5.10" departSpeed="0.00" departDelay="0.00" arrival="124.00" arrivalLane="gneE2_0" arrivalPos="491.30" arrivalSpeed="11.75" duration="74.00" routeLength="701.88" waitingTime="0.00" waitingCount="0" stopTime="0.00" timeLoss="15.49" rerouteNo="0" devices="tripinfo_random2" vType="type1" speedFactor="1.01" vaporized=""/>
    <tripinfo id="random9" depart="55.00" departLane="gneE1_0" departPos="5.10" departSpeed="0.00" departDelay="5.00" arrival="131.00" arrivalLane="gneE2_0" arrivalPos="491.30" arrivalSpeed="10.82" duration="76.00" routeLength="701.88" waitingTime="1.00" waitingCount="1" stopTime="0.00" timeLoss="16.27" rerouteNo="0" devices="tripinfo_random9" vType="type2" speedFactor="0.86" vaporized=""/>
    <tripinfo id="random6" depart="67.00" departLane="gneE0_0" departPos="5.10" departSpeed="0.00" departDelay="17.00" arrival="134.00" arrivalLane="gneE0_0" arrivalPos="671.08" arrivalSpeed="12.10" duration="67.00" routeLength="665.98" waitingTime="0.00" waitingCount="0" stopTime="0.00" timeLoss="13.67" rerouteNo="0" devices="tripinfo_random6" vType="type2" speedFactor="1.05" vaporized=""/>
    <tripinfo id="10" depart="75.00" departLane="gneE0_0" departPos="5.10" departSpeed="0.00" departDelay="23.47" arrival="141.00" arrivalLane="gneE0_0" arrivalPos="671.08" arrivalSpeed="11.94" duration="66.00" routeLength="665.98" waitingTime="0.00" waitingCount="0" stopTime="0.00" timeLoss="10.39" rerouteNo="0" devices="tripinfo_10" vType="type1" speedFactor="1.12" vaporized=""/>
    <tripinfo id="random5" depart="65.00" departLane="gneE0_0" departPos="5.10" departSpeed="0.00" departDelay="15.00" arrival="144.00" arrivalLane="gneE0_0" arrivalPos="671.08" arrivalSpeed="9.19" duration="79.00" routeLength="665.98" waitingTime="0.00" waitingCount="0" stopTime="0.00" timeLoss="11.82" rerouteNo="0" devices="tripinfo_random5" vType="type2" speedFactor="0.83" vaporized=""/>
    <tripinfo id="17" depart="80.00" departLane="gneE0_0" departPos="5.10" departSpeed="0.00" departDelay="28.78" arrival="151.00" arrivalLane="gneE0_0" arrivalPos="671.08" arrivalSpeed="10.93" duration="71.00" routeLength="665.98" waitingTime="0.00" waitingCount="0" stopTime="0.00" timeLoss="9.30" rerouteNo="0" devices="tripinfo_17" vType="type1" speedFactor="0.91" vaporized=""/>
    <tripinfo id="random4" depart="60.00" departLane="gneE0_0" departPos="8.10" departSpeed="0.00" departDelay="10.00" arrival="152.00" arrivalLane="gneE0_0" arrivalPos="671.08" arrivalSpeed="7.61" duration="92.00" routeLength="662.98" waitingTime="0.00" waitingCount="0" stopTime="0.00" timeLoss="8.66" rerouteNo="0" devices="tripinfo_random4" vType="type3" speedFactor="1.03" vaporized=""/>
    <tripinfo id="4" depart="85.00" departLane="gneE0_0" departPos="5.10" departSpeed="0.00" departDelay="32.16" arrival="154.00" arrivalLane="gneE0_1" arrivalPos="671.08" arrivalSpeed="11.45" duration="69.00" routeLength="665.98" waitingTime="0.00" waitingCount="0" stopTime="0.00" timeLoss="10.01" rerouteNo="0" devices="tripinfo_4" vType="type1" speedFactor="0.96" vaporized=""/>
    <tripinfo id="random11" depart="95.00" departLane="gneE0_0" departPos="5.10" departSpeed="0.00" departDelay="40.00" arrival="157.00" arrivalLane="gneE0_0" arrivalPos="671.08" arrivalSpeed="9.99" duration="62.00" routeLength="665.98" waitingTime="0.00" waitingCount="0" stopTime="0.00" timeLoss="7.29" rerouteNo="0" devices="tripinfo_random11" vType="type2" speedFactor="1.03" vaporized=""/>
    <tripinfo id="random10" depart="60.00" departLane="gneE1_0" departPos="8.10" departSpeed="0.00" departDelay="5.00" arrival="158.00" arrivalLane="gneE2_0" arrivalPos="491.30" arrivalSpeed="7.78" duration="98.00" routeLength="698.88" waitingTime="0.00" waitingCount="0" stopTime="0.00" timeLoss="10.56" rerouteNo="0" devices="tripinfo_random10" vType="type3" speedFactor="1.09" vaporized=""/>
    <tripinfo id="14" depart="90.00" departLane="gneE0_0" departPos="5.10" departSpeed="0.00" departDelay="36.08" arrival="158.00" arrivalLane="gneE0_1" arrivalPos="671.08" arrivalSpeed="11.78" duration="68.00" routeLength="665.98" waitingTime="0.00" waitingCount="0" stopTime="0.00" timeLoss="12.37" rerouteNo="0" devices="tripinfo_14" vType="type1" speedFactor="1.07" vaporized=""/>
    <tripinfo id="random1" depart="52.00" departLane="gneE3_0" departPos="8.10" departSpeed="0.00" departDelay="2.00" arrival="160.00" arrivalLane="gneE4_0" arrivalPos="431.40" arrivalSpeed="7.73" duration="108.00" routeLength="772.51" waitingTime="0.00" waitingCount="0" stopTime="0.00" timeLoss="11.14" rerouteNo="0" devices="tripinfo_random1" vType="type3" speedFactor="0.94" vaporized=""/>
    <tripinfo id="random7" depart="70.00" departLane="gneE0_0" departPos="8.10" departSpeed="0.00" departDelay="20.00" arrival="161.00" arrivalLane="gneE0_0" arrivalPos="671.08" arrivalSpeed="7.92" duration="91.00" routeLength="662.98" waitingTime="0.00" waitingCount="0" stopTime="0.00" timeLoss="7.97" rerouteNo="0" devices="tripinfo_random7" vType="type3" speedFactor="0.89" vaporized=""/>
    <tripinfo id="random12" depart="66.00" departLane="gneE1_0" departPos="8.10" departSpeed="0.00" departDelay="11.00" arrival="164.00" arrivalLane="gneE2_0" arrivalPos="491.30" arrivalSpeed="7.88" duration="98.00" routeLength="698.88" waitingTime="0.00" waitingCount="0" stopTime="0.00" timeLoss="10.40" rerouteNo="0" devices="tripinfo_random12" vType="type3" speedFactor="1.05" vaporized=""/>
    <tripinfo id="random8" depart="58.00" departLane="gneE3_0" departPos="8.10" departSpeed="0.00" departDelay="8.00" arrival="166.00" arrivalLane="gneE4_0" arrivalPos="431.40" arrivalSpeed="7.72" duration="108.00" routeLength="772.51" waitingTime="0.00" waitingCount="0" stopTime="0.00" timeLoss="11.15" rerouteNo="0" devices="tripinfo_random8" vType="type3" speedFactor="0.94" vaporized=""/>
    <tripinfo id="random18" depart="71.00" departLane="gneE1_0" departPos="5.10" departSpeed="0.00" departDelay="16.00" arrival="166.00" arrivalLane="gneE2_0" arrivalPos="491.30" arrivalSpeed="9.07" duration="95.00" routeLength="701.88" waitingTime="1.00" waitingCount="1" stopTime="0.00" timeLoss="36.44" rerouteNo="0" devices="tripinfo_random18" vType="type1" speedFactor="0.94" vaporized=""/>
    <tripinfo id="12" depart="101.00" departLane="gneE0_0" departPos="5.10" departSpeed="0.00" departDelay="42.50" arrival="167.00" arrivalLane="gneE0_0" arrivalPos="671.08" arrivalSpeed="11.73" duration="66.00" routeLength="665.98" waitingTime="0.00" waitingCount="0" stopTime="0.00" timeLoss="10.22" rerouteNo="0" devices="tripinfo_12" vType="type1" speedFactor="1.01" vaporized=""/>
    <tripinfo id="random13" depart="63.00" departLane="gneE3_0" departPos="5.10" departSpeed="0.00" departDelay="8.00" arrival="168.00" arrivalLane="gneE4_0" arrivalPos="431.40" arrivalSpeed="9.04" duration="105.00" routeLength="775.51" waitingTime="0.00" waitingCount="0" stopTime="0.00" timeLoss="39.69" rerouteNo="0" devices="tripinfo_random13" vType="type1" speedFactor="1.12" vaporized=""/>
    <tripinfo id="random14" depart="69.00" departLane="gneE3_0" departPos="5.10" departSpeed="0.00" departDelay="14.00" arrival="170.00" arrivalLane="gneE4_0" arrivalPos="431.40" arrivalSpeed="9.62" duration="101.00" routeLength="775.51" waitingTime="0.00" waitingCount="0" stopTime="0.00" timeLoss="35.51" rerouteNo="0" devices="tripinfo_random14" vType="type1" speedFactor="0.99" vaporized=""/>
    <tripinfo id="random15" depart="74.00" departLane="gneE3_0" departPos="5.10" departSpeed="0.00" departDelay="19.00" arrival="172.00" arrivalLane="gneE4_0" arrivalPos="431.40" arrivalSpeed="9.88" duration="98.00" routeLength="775.51" waitingTime="0.00" waitingCount="0" stopTime="0.00" timeLoss="32.34" rerouteNo="0" devices="tripinfo_random15" vType="type1" speedFactor="0.93" vaporized=""/>
    <tripinfo id="random22" depart="78.00" departLane="gneE1_0" departPos="8.10" departSpeed="0.00" departDelay="18.00" arrival="176.00" arrivalLane="gneE2_0" arrivalPos="491.30" arrivalSpeed="7.83" duration="98.00" routeLength="698.88" waitingTime="0.00" waitingCount="0" stopTime="0.00" timeLoss="10.56" rerouteNo="0" devices="tripinfo_random22" vType="type3" speedFactor="0.98" vaporized=""/>
    <tripinfo id="random23" depart="83.00" departLane="gneE1_0" departPos="5.10" departSpeed="0.00" departDelay="23.00" arrival="179.00" arrivalLane="gneE2_0" arrivalPos="491.30" arrivalSpeed="9.25" duration="96.00" routeLength="701.88" waitingTime="0.00" waitingCount="0" stopTime="0.00" timeLoss="36.18" rerouteNo="0" devices="tripinfo_random23" vType="type1" speedFactor="0.89" vaporized=""/>
    <tripinfo id="random25" depart="88.00" departLane="gneE1_0" departPos="5.10" departSpeed="0.00" departDelay="28.00" arrival="180.00" arrivalLane="gneE2_0" arrivalPos="491.30" arrivalSpeed="9.33" duration="92.00" routeLength="701.88" waitingTime="0.00" waitingCount="0" stopTime="0.00" timeLoss="32.81" rerouteNo="0" devices="tripinfo_random25" vType="type1" speedFactor="0.87" vaporized=""/>
    <tripinfo id="random28" depart="93.00" departLane="gneE1_0" departPos="5.10" departSpeed="0.00" departDelay="33.00" arrival="182.00" arrivalLane="gneE2_0" arrivalPos="491.30" arrivalSpeed="9.60" duration="89.00" routeLength="701.88" waitingTime="0.00" waitingCount="0" stopTime="0.00" timeLoss="30.40" rerouteNo="0" devices="tripinfo_random28" vType="type1" speedFactor="1.13" vaporized=""/>
    <tripinfo id="random16" depart="80.00" departLane="gneE3_0" departPos="8.10" departSpeed="0.00" departDelay="25.00" arrival="188.00" arrivalLane="gneE4_0" arrivalPos="431.40" arrivalSpeed="7.65" duration="108.00" routeLength="772.51" waitingTime="0.00" waitingCount="0" stopTime="0.00" timeLoss="11.34" rerouteNo="0" devices="tripinfo_random16" vType="type3" speedFactor="0.88" vaporized=""/>
    <tripinfo id="random19" depart="96.00" departLane="gneE0_0" departPos="8.10" departSpeed="0.00" departDelay="41.00" arrival="188.00" arrivalLane="gneE0_0" arrivalPos="671.08" arrivalSpeed="7.76" duration="92.00" routeLength="662.98" waitingTime="0.00" waitingCount="0" stopTime="0.00" timeLoss="8.29" rerouteNo="0" devices="tripinfo_random19" vType="type3" speedFactor="1.16" vaporized=""/>
    <tripinfo id="random17" depart="85.00" departLane="gneE3_0" departPos="5.10" departSpeed="0.00" departDelay="30.00" arrival="191.00" arrivalLane="gneE4_0" arrivalPos="431.40" arrivalSpeed="9.55" duration="106.00" routeLength="775.51" waitingTime="0.00" waitingCount="0" stopTime="0.00" timeLoss="39.91" rerouteNo="0" devices="tripinfo_random17" vType="type1" speedFactor="0.94" vaporized=""/>
    <tripinfo id="random26" depart="124.00" departLane="gneE0_0" departPos="5.10" departSpeed="0.00" departDelay="64.00" arrival="194.00" arrivalLane="gneE0_0" arrivalPos="671.08" arrivalSpeed="10.07" duration="70.00" routeLength="665.98" waitingTime="0.00" waitingCount="0" stopTime="0.00" timeLoss="8.62" rerouteNo="0" devices="tripinfo_random26" vType="type2" speedFactor="0.92" vaporized=""/>
    <tripinfo id="random30" depart="99.00" departLane="gneE1_0" departPos="8.10" departSpeed="0.00" departDelay="34.00" arrival="197.00" arrivalLane="gneE2_0" arrivalPos="491.30" arrivalSpeed="7.75" duration="98.00" routeLength="698.88" waitingTime="0.00" waitingCount="0" stopTime="0.00" timeLoss="9.95" rerouteNo="0" devices="tripinfo_random30" vType="type3" speedFactor="1.18" vaporized=""/>
    <tripinfo id="random20" depart="107.00" departLane="gneE0_0" departPos="8.10" departSpeed="0.00" departDelay="47.00" arrival="198.00" arrivalLane="gneE0_0" arrivalPos="671.08" arrivalSpeed="7.74" duration="91.00" routeLength="662.98" waitingTime="0.00" waitingCount="0" stopTime="0.00" timeLoss="7.59" rerouteNo="0" devices="tripinfo_random20" vType="type3" speedFactor="1.02" vaporized=""/>
    <tripinfo id="random29" depart="130.00" departLane="gneE0_0" departPos="5.10" departSpeed="0.00" departDelay="70.00" arrival="198.00" arrivalLane="gneE0_1" arrivalPos="671.08" arrivalSpeed="10.86" duration="68.00" routeLength="665.98" waitingTime="0.00" waitingCount="0" stopTime="0.00" timeLoss="8.07" rerouteNo="0" devices="tripinfo_random29" vType="type2" speedFactor="0.93" vaporized=""/>
    <tripinfo id="random32" depart="92.00" departLane="gneE3_0" departPos="8.10" departSpeed="0.00" departDelay="27.00" arrival="199.00" arrivalLane="gneE4_0" arrivalPos="431.40" arrivalSpeed="7.80" duration="107.00" routeLength="772.51" waitingTime="0.00" waitingCount="0" stopTime="0.00" timeLoss="9.78" rerouteNo="0" devices="tripinfo_random32" vType="type3" speedFactor="1.01" vaporized=""/>
    <tripinfo id="1" depart="132.00" departLane="gneE0_0" departPos="5.10" departSpeed="0.00" departDelay="69.12" arrival="200.00" arrivalLane="gneE0_1" arrivalPos="671.08" arrivalSpeed="11.35" duration="68.00" routeLength="665.98" waitingTime="0.00" waitingCount="0" stopTime="0.00" timeLoss="12.01" rerouteNo="0" devices="tripinfo_1" vType="type1" speedFactor="1.07" vaporized=""/>
    <tripinfo id="random33" depart="97.00" departLane="gneE3_0" departPos="5.10" departSpeed="0.00" departDelay="32.00" arrival="201.00" arrivalLane="gneE4_0" arrivalPos="431.40" arrivalSpeed="16.04" duration="104.00" routeLength="775.51" waitingTime="0.00" waitingCount="0" stopTime="0.00" timeLoss="59.11" rerouteNo="0" devices="tripinfo_random33" vType="type2" speedFactor="1.17" vaporized=""/>
    <tripinfo id="random35" depart="105.00" departLane="gneE1_0" departPos="8.10" departSpeed="0.00" departDelay="40.00" arrival="202.00" arrivalLane="gneE2_0" arrivalPos="491.30" arrivalSpeed="7.81" duration="97.00" routeLength="698.88" waitingTime="0.00" waitingCount="0" stopTime="0.00" timeLoss="8.68" rerouteNo="0" devices="tripinfo_random35" vType="type3" speedFactor="1.02" vaporized=""/>
    <tripinfo id="7" depart="137.00" departLane="gneE0_0" departPos="5.10" departSpeed="0.00" departDelay="73.40" arrival="203.00" arrivalLane="gneE0_1" arrivalPos="671.08" arrivalSpeed="11.84" duration="66.00" routeLength="665.98" waitingTime="0.00" waitingCount="0" stopTime="0.00" timeLoss="10.29" rerouteNo="0" devices="tripinfo_7" vType="type1" speedFactor="1.01" vaporized=""/>
    <tripinfo id="random21" depart="113.00" departLane="gneE0_0" departPos="8.10" departSpeed="0.00" departDelay="53.00" arrival="204.00" arrivalLane="gneE0_0" arrivalPos="671.08" arrivalSpeed="7.87" duration="91.00" routeLength="662.98" waitingTime="0.00" waitingCount="0" stopTime="0.00" timeLoss="7.97" rerouteNo="0" devices="tripinfo_random21" vType="type3" speedFactor="1.01" vaporized=""/>
    <tripinfo id="random34" depart="101.00" departLane="gneE3_0" departPos="8.10" departSpeed="0.00" departDelay="36.00" arrival="208.00" arrivalLane="gneE4_0" arrivalPos="431.40" arrivalSpeed="7.84" duration="107.00" routeLength="772.51" waitingTime="0.00" waitingCount="0" stopTime="0.00" timeLoss="10.12" rerouteNo="0" devices="tripinfo_random34" vType="type3" speedFactor="0.99" vaporized=""/>
    <tripinfo id="random31" depart="142.00" departLane="gneE0_0" departPos="5.10" departSpeed="0.00" departDelay="77.00" arrival="209.00" arrivalLane="gneE0_1" arrivalPos="671.08" arrivalSpeed="11.93" duration="67.00" routeLength="665.98" waitingTime="0.00" waitingCount="0" stopTime="0.00" timeLoss="11.41" rerouteNo="0" devices="tripinfo_random31" vType="type1" speedFactor="1.15" vaporized=""/>
    <tripinfo id="random38" depart="110.00" departLane="gneE1_0" departPos="8.10" departSpeed="0.00" departDelay="45.00" arrival="209.00" arrivalLane="gneE2_0" arrivalPos="491.30" arrivalSpeed="7.60" duration="99.00" routeLength="698.88" waitingTime="1.00" waitingCount="1" stopTime="0.00" timeLoss="11.26" rerouteNo="0" devices="tripinfo_random38" vType="type3" speedFactor="1.10" vaporized=""/>
    <tripinfo id="random24" depart="119.00" departLane="gneE0_0" departPos="8.10" departSpeed="0.00" departDelay="59.00" arrival="210.00" arrivalLane="gneE0_0" arrivalPos="671.08" arrivalSpeed="7.72" duration="91.00" routeLength="662.98" waitingTime="0.00" waitingCount="0" stopTime="0.00" timeLoss="7.78" rerouteNo="0" devices="tripinfo_random24" vType="type3" speedFactor="0.83" vaporized=""/>
    <tripinfo id="random39" depart="106.00" departLane="gneE3_0" departPos="5.10" departSpeed="0.00" departDelay="41.00" arrival="210.00" arrivalLane="gneE4_0" arrivalPos="431.40" arrivalSpeed="9.02" duration="104.00" routeLength="775.51" waitingTime="0.00" waitingCount="0" stopTime="0.00" timeLoss="39.28" rerouteNo="0" devices="tripinfo_random39" vType="type1" speedFactor="0.90" vaporized=""/>
    <tripinfo id="random40" depart="116.00" departLane="gneE1_0" departPos="5.10" departSpeed="0.00" departDelay="46.00" arrival="211.00" arrivalLane="gneE2_0" arrivalPos="491.30" arrivalSpeed="9.32" duration="95.00" routeLength="701.88" waitingTime="0.00" waitingCount="0" stopTime="0.00" timeLoss="36.28" rerouteNo="0" devices="tripinfo_random40" vType="type1" speedFactor="1.03" vaporized=""/>
    <tripinfo id="random41" depart="121.00" departLane="gneE1_0" departPos="5.10" departSpeed="0.00" departDelay="51.00" arrival="213.00" arrivalLane="gneE2_0" arrivalPos="491.30" arrivalSpeed="13.29" duration="92.00" routeLength="701.88" waitingTime="0.00" waitingCount="0" stopTime="0.00" timeLoss="38.49" rerouteNo="0" devices="tripinfo_random41" vType="type2" speedFactor="0.96" vaporized=""/>
    <tripinfo id="random27" depart="125.00" departLane="gneE0_0" departPos="8.10" departSpeed="0.00" departDelay="65.00" arrival="217.00" arrivalLane="gneE0_0" arrivalPos="671.08" arrivalSpeed="7.81" duration="92.00" routeLength="662.98" waitingTime="0.00" waitingCount="0" stopTime="0.00" timeLoss="8.73" rerouteNo="0" devices="tripinfo_random27" vType="type3" speedFactor="0.95" vaporized=""/>
    <tripinfo id="random48" depart="112.00" departLane="gneE3_0" departPos="8.10" departSpeed="0.00" departDelay="42.00" arrival="221.00" arrivalLane="gneE4_0" arrivalPos="431.40" arrivalSpeed="7.75" duration="109.00" routeLength="772.51" waitingTime="1.00" waitingCount="1" stopTime="0.00" timeLoss="12.23" rerouteNo="0" devices="tripinfo_random48" vType="type3" speedFactor="0.88" vaporized=""/>
    <tripinfo id="random46" depart="125.00" departLane="gneE1_0" departPos="8.10" departSpeed="0.00" departDelay="55.00" arrival="223.00" arrivalLane="gneE2_0" arrivalPos="491.30" arrivalSpeed="7.82" duration="98.00" routeLength="698.88" waitingTime="0.00" waitingCount="0" stopTime="0.00" timeLoss="10.64" rerouteNo="0" devices="tripinfo_random46" vType="type3" speedFactor="1.00" vaporized=""/>
    <tripinfo id="random49" depart="118.00" departLane="gneE3_0" departPos="5.10" departSpeed="0.00" departDelay="48.00" arrival="223.00" arrivalLane="gneE4_0" arrivalPos="431.40" arrivalSpeed="10.97" duration="105.00" routeLength="775.51" waitingTime="0.00" waitingCount="0" stopTime="0.00" timeLoss="43.63" rerouteNo="0" devices="tripinfo_random49" vType="type2" speedFactor="0.85" vaporized=""/>
    <tripinfo id="random51" depart="122.00" departLane="gneE3_0" departPos="5.10" departSpeed="0.00" departDelay="47.00" arrival="225.00" arrivalLane="gneE4_0" arrivalPos="431.40" arrivalSpeed="10.19" duration="103.00" routeLength="775.51" waitingTime="0.00" waitingCount="0" stopTime="0.00" timeLoss="38.31" rerouteNo="0" devices="tripinfo_random51" vType="type1" speedFactor="1.17" vaporized=""/>
    <tripinfo id="random47" depart="130.00" departLane="gneE1_0" departPos="5.10" departSpeed="0.00" departDelay="60.00" arrival="226.00" arrivalLane="gneE2_0" arrivalPos="491.30" arrivalSpeed="10.01" duration="96.00" routeLength="701.88" waitingTime="0.00" waitingCount="0" stopTime="0.00" timeLoss="36.71" rerouteNo="0" devices="tripinfo_random47" vType="type1" speedFactor="0.90" vaporized=""/>
    <tripinfo id="random54" depart="127.00" departLane="gneE3_0" departPos="5.10" departSpeed="0.00" departDelay="52.00" arrival="227.00" arrivalLane="gneE4_0" arrivalPos="431.40" arrivalSpeed="12.66" duration="100.00" routeLength="775.51" waitingTime="0.00" waitingCount="0" stopTime="0.00" timeLoss="47.33" rerouteNo="0" devices="tripinfo_random54" vType="type2" speedFactor="1.00" vaporized=""/>
    <tripinfo id="random59" depart="135.00" departLane="gneE1_0" departPos="5.10" departSpeed="0.00" departDelay="60.00" arrival="227.00" arrivalLane="gneE2_0" arrivalPos="491.30" arrivalSpeed="9.93" duration="92.00" routeLength="701.88" waitingTime="0.00" waitingCount="0" stopTime="0.00" timeLoss="33.37" rerouteNo="0" devices="tripinfo_random59" vType="type1" speedFactor="0.97" vaporized=""/>
    <tripinfo id="random60" depart="140.00" departLane="gneE1_0" departPos="5.10" departSpeed="0.00" departDelay="60.00" arrival="229.00" arrivalLane="gneE2_0" arrivalPos="491.30" arrivalSpeed="14.08" duration="89.00" routeLength="701.88" waitingTime="0.00" waitingCount="0" stopTime="0.00" timeLoss="41.73" rerouteNo="0" devices="tripinfo_random60" vType="type2" speedFactor="1.08" vaporized=""/>
    <tripinfo id="random62" depart="131.00" departLane="gneE3_0" departPos="5.10" departSpeed="0.00" departDelay="51.00" arrival="229.00" arrivalLane="gneE4_0" arrivalPos="431.40" arrivalSpeed="10.77" duration="98.00" routeLength="775.51" waitingTime="0.00" waitingCount="0" stopTime="0.00" timeLoss="33.23" rerouteNo="0" devices="tripinfo_random62" vType="type1" speedFactor="1.02" vaporized=""/>
    <tripinfo id="random43" depart="170.00" departLane="gneE0_0" departPos="5.10" departSpeed="0.00" departDelay="100.00" arrival="231.00" arrivalLane="gneE0_0" arrivalPos="671.08" arrivalSpeed="11.08" duration="61.00" routeLength="665.98" waitingTime="0.00" waitingCount="0" stopTime="0.00" timeLoss="7.21" rerouteNo="0" devices="tripinfo_random43" vType="type2" speedFactor="1.04" vaporized=""/>
    <tripinfo id="random65" depart="136.00" departLane="gneE3_0" departPos="5.10" departSpeed="0.00" departDelay="56.00" arrival="231.00" arrivalLane="gneE4_0" arrivalPos="431.40" arrivalSpeed="11.30" duration="95.00" routeLength="775.51" waitingTime="0.00" waitingCount="0" stopTime="0.00" timeLoss="35.45" rerouteNo="0" devices="tripinfo_random65" vType="type2" speedFactor="0.88" vaporized=""/>
    <tripinfo id="random63" depart="144.00" departLane="gneE1_0" departPos="5.10" departSpeed="0.00" departDelay="64.00" arrival="232.00" arrivalLane="gneE2_0" arrivalPos="491.30" arrivalSpeed="11.01" duration="88.00" routeLength="701.88" waitingTime="0.00" waitingCount="0" stopTime="0.00" timeLoss="28.66" rerouteNo="0" devices="tripinfo_random63" vType="type1" speedFactor="0.99" vaporized=""/>
    <tripinfo id="random44" depart="171.00" departLane="gneE0_0" departPos="5.10" departSpeed="0.00" departDelay="101.00" arrival="233.00" arrivalLane="gneE0_1" arrivalPos="671.08" arrivalSpeed="12.45" duration="62.00" routeLength="665.98" waitingTime="0.00" waitingCount="0" stopTime="0.00" timeLoss="8.38" rerouteNo="0" devices="tripinfo_random44" vType="type2" speedFactor="1.04" vaporized=""/>
    <tripinfo id="random66" depart="149.00" departLane="gneE1_0" departPos="5.10" departSpeed="0.00" departDelay="69.00" arrival="234.00" arrivalLane="gneE2_0" arrivalPos="491.30" arrivalSpeed="10.28" duration="85.00" routeLength="701.88" waitingTime="0.00" waitingCount="0" stopTime="0.00" timeLoss="28.54" rerouteNo="0" devices="tripinfo_random66" vType="type2" speedFactor="0.91" vaporized=""/>
    <tripinfo id="random42" depart="165.00" departLane="gneE0_0" departPos="5.10" departSpeed="0.00" departDelay="95.00" arrival="235.00" arrivalLane="gneE0_0" arrivalPos="671.08" arrivalSpeed="11.97" duration="70.00" routeLength="665.98" waitingTime="0.00" waitingCount="0" stopTime="0.00" timeLoss="13.83" rerouteNo="0" devices="tripinfo_random42" vType="type1" speedFactor="1.09" vaporized=""/>
    <tripinfo id="random68" depart="152.00" departLane="gneE1_0" departPos="5.10" departSpeed="0.00" departDelay="72.00" arrival="236.00" arrivalLane="gneE2_0" arrivalPos="491.30" arrivalSpeed="9.80" duration="84.00" routeLength="701.88" waitingTime="0.00" waitingCount="0" stopTime="0.00" timeLoss="25.15" rerouteNo="0" devices="tripinfo_random68" vType="type1" speedFactor="1.04" vaporized=""/>
    <tripinfo id="random69" depart="157.00" departLane="gneE1_0" departPos="5.10" departSpeed="0.00" departDelay="77.00" arrival="238.00" arrivalLane="gneE2_0" arrivalPos="491.30" arrivalSpeed="13.80" duration="81.00" routeLength="701.88" waitingTime="0.00" waitingCount="0" stopTime="0.00" timeLoss="31.03" rerouteNo="0" devices="tripinfo_random69" vType="type2" speedFactor="1.02" vaporized=""/>
    <tripinfo id="random36" depart="149.00" departLane="gneE0_0" departPos="8.10" departSpeed="0.00" departDelay="84.00" arrival="240.00" arrivalLane="gneE0_0" arrivalPos="671.08" arrivalSpeed="7.69" duration="91.00" routeLength="662.98" waitingTime="0.00" waitingCount="0" stopTime="0.00" timeLoss="7.67" rerouteNo="0" devices="tripinfo_random36" vType="type3" speedFactor="0.97" vaporized=""/>
    <tripinfo id="6" depart="179.00" departLane="gneE0_0" departPos="5.10" departSpeed="0.00" departDelay="109.44" arrival="245.00" arrivalLane="gneE0_1" arrivalPos="671.08" arrivalSpeed="11.93" duration="66.00" routeLength="665.98" waitingTime="0.00" waitingCount="0" stopTime="0.00" timeLoss="10.24" rerouteNo="0" devices="tripinfo_6" vType="type1" speedFactor="1.02" vaporized=""/>
    <tripinfo id="random37" depart="155.00" departLane="gneE0_0" departPos="8.10" departSpeed="0.00" departDelay="90.00" arrival="246.00" arrivalLane="gneE0_0" arrivalPos="671.08" arrivalSpeed="7.87" duration="91.00" routeLength="662.98" waitingTime="0.00" waitingCount="0" stopTime="0.00" timeLoss="7.88" rerouteNo="0" devices="tripinfo_random37" vType="type3" speedFactor="1.18" vaporized=""/>
    <tripinfo id="random71" depart="140.00" departLane="gneE3_0" departPos="8.10" departSpeed="0.00" departDelay="55.00" arrival="248.00" arrivalLane="gneE4_0" arrivalPos="431.40" arrivalSpeed="7.68" duration="108.00" routeLength="772.51" waitingTime="0.00" waitingCount="0" stopTime="0.00" timeLoss="10.95" rerouteNo="0" devices="tripinfo_random71" vType="type3" speedFactor="0.97" vaporized=""/>